[Molden Format]
made by pyscf v[2.13.1]
[Atoms] (AU)
O   1   8     2.22628634735010     0.00755890449826     0.00000000000000
C   2   6    -1.80960173688350     1.33112308214363     0.00000000000000
C   3   6    -1.80034207887313    -1.34340630195330     0.00000000000000
C   4   6     0.68483674754238     2.06150222928803    -0.00018897261246
C   5   6     0.69919866608907    -2.05677791397661     0.00000000000000
H   6   1    -3.43136469698524     2.57135033769568     0.00018897261246
H   7   1    -3.41379024402678    -2.59478294164029     0.00000000000000
H   8   1     1.62686522063806     3.87242677445872     0.00000000000000
H   9   1     1.65313241376952    -3.86127739032379     0.00000000000000
[GTO]
1 0
 s    6 1.00
          27032.382631  0.00057227335211155
          4052.3871392  0.0044353233492995
           922.3272271   0.023020107706038
          261.24070989   0.092822490667928
          85.354641351    0.29378500009671
          31.035035245    0.67401604501641
 s    2 1.00
          12.260860728    0.63839937025506
          4.9987076005    0.39534587125718
 s    1 1.00
          1.1703108158                   1
 s    1 1.00
         0.46474740994                   1
 s    1 1.00
         0.18504536357                   1
 p    4 1.00
          63.274954801   0.012018332222616
          14.627049379   0.083005421790056
          4.4501223456    0.31991743925964
          1.5275799647    0.70715542916104
 p    1 1.00
         0.52935117943                   1
 p    1 1.00
          0.1747842127                   1
 d    1 1.00
                 2.314                   1
 d    1 1.00
                 0.645                   1
 f    1 1.00
                 1.428                   1

2 0
 s    6 1.00
          13575.349682  0.00060645503603591
           2035.233368  0.0046979088884982
          463.22562359   0.024332477647552
          131.20019598   0.097399968307759
          42.853015891     0.3019558425378
          15.584185766    0.66233609137875
 s    2 1.00
          6.2067138508    0.65595308539952
          2.5764896527    0.37585633285142
 s    1 1.00
         0.57696339419                   1
 s    1 1.00
         0.22972831358                   1
 s    1 1.00
        0.095164440028                   1
 p    4 1.00
          34.697232244   0.011327220003114
          7.9582622826   0.076169659202087
          2.3780826883    0.30192252202676
         0.81433208183    0.72785027349547
 p    1 1.00
         0.28887547253                   1
 p    1 1.00
         0.10056823671                   1
 d    1 1.00
                 1.097                   1
 d    1 1.00
                 0.318                   1
 f    1 1.00
                 0.761                   1

3 0
 s    6 1.00
          13575.349682  0.00060645503603591
           2035.233368  0.0046979088884982
          463.22562359   0.024332477647552
          131.20019598   0.097399968307759
          42.853015891     0.3019558425378
          15.584185766    0.66233609137875
 s    2 1.00
          6.2067138508    0.65595308539952
          2.5764896527    0.37585633285142
 s    1 1.00
         0.57696339419                   1
 s    1 1.00
         0.22972831358                   1
 s    1 1.00
        0.095164440028                   1
 p    4 1.00
          34.697232244   0.011327220003114
          7.9582622826   0.076169659202087
          2.3780826883    0.30192252202676
         0.81433208183    0.72785027349547
 p    1 1.00
         0.28887547253                   1
 p    1 1.00
         0.10056823671                   1
 d    1 1.00
                 1.097                   1
 d    1 1.00
                 0.318                   1
 f    1 1.00
                 0.761                   1

4 0
 s    6 1.00
          13575.349682  0.00060645503603591
           2035.233368  0.0046979088884982
          463.22562359   0.024332477647552
          131.20019598   0.097399968307759
          42.853015891     0.3019558425378
          15.584185766    0.66233609137875
 s    2 1.00
          6.2067138508    0.65595308539952
          2.5764896527    0.37585633285142
 s    1 1.00
         0.57696339419                   1
 s    1 1.00
         0.22972831358                   1
 s    1 1.00
        0.095164440028                   1
 p    4 1.00
          34.697232244   0.011327220003114
          7.9582622826   0.076169659202087
          2.3780826883    0.30192252202676
         0.81433208183    0.72785027349547
 p    1 1.00
         0.28887547253                   1
 p    1 1.00
         0.10056823671                   1
 d    1 1.00
                 1.097                   1
 d    1 1.00
                 0.318                   1
 f    1 1.00
                 0.761                   1

5 0
 s    6 1.00
          13575.349682  0.00060645503603591
           2035.233368  0.0046979088884982
          463.22562359   0.024332477647552
          131.20019598   0.097399968307759
          42.853015891     0.3019558425378
          15.584185766    0.66233609137875
 s    2 1.00
          6.2067138508    0.65595308539952
          2.5764896527    0.37585633285142
 s    1 1.00
         0.57696339419                   1
 s    1 1.00
         0.22972831358                   1
 s    1 1.00
        0.095164440028                   1
 p    4 1.00
          34.697232244   0.011327220003114
          7.9582622826   0.076169659202087
          2.3780826883    0.30192252202676
         0.81433208183    0.72785027349547
 p    1 1.00
         0.28887547253                   1
 p    1 1.00
         0.10056823671                   1
 d    1 1.00
                 1.097                   1
 d    1 1.00
                 0.318                   1
 f    1 1.00
                 0.761                   1

6 0
 s    3 1.00
             34.061341   0.025439307208879
             5.1235746    0.19008594890375
             1.1646626    0.85244113011042
 s    1 1.00
            0.32723041                   1
 s    1 1.00
            0.10307241                   1
 p    1 1.00
                   0.8                   1

7 0
 s    3 1.00
             34.061341   0.025439307208879
             5.1235746    0.19008594890375
             1.1646626    0.85244113011042
 s    1 1.00
            0.32723041                   1
 s    1 1.00
            0.10307241                   1
 p    1 1.00
                   0.8                   1

8 0
 s    3 1.00
             34.061341   0.025439307208879
             5.1235746    0.19008594890375
             1.1646626    0.85244113011042
 s    1 1.00
            0.32723041                   1
 s    1 1.00
            0.10307241                   1
 p    1 1.00
                   0.8                   1

9 0
 s    3 1.00
             34.061341   0.025439307208879
             5.1235746    0.19008594890375
             1.1646626    0.85244113011042
 s    1 1.00
            0.32723041                   1
 s    1 1.00
            0.10307241                   1
 p    1 1.00
                   0.8                   1

[5d]
[7f]
[9g]

[MO]
 Sym= A
 Ene=    -19.19971317
 Spin= Alpha
 Occup=    2.00000
   1      0.43511022158029
   2      0.63945177491482
   3     0.037212682590417
   4    -0.031255221965364
   5    0.0054388983872284
   6    -0.0022177701991699
   7    -7.9363949206709e-06
   8    -1.4933150130636e-07
   9     0.006286752660884
  10    2.2677885549595e-05
  11    3.8166872339682e-07
  12    0.00053063664695096
  13    1.880896096244e-06
  14    -2.1195333501756e-08
  15    -0.00026996398109105
  16    1.9982884922714e-08
  17    -2.8908728980792e-08
  18    -0.00014273881740041
  19    -9.3609362484395e-07
  20    0.0015836416719902
  21    -1.1478519159395e-07
  22    1.6188390569075e-07
  23    0.00073389252218056
  24    4.8475604134582e-06
  25    -2.5186826484093e-08
  26    -0.00017486841203947
  27    -6.214570206376e-07
  28    -1.1012780529939e-08
  29    -3.0652052013543e-08
  30    -0.00034108179538803
  31    -3.5331621897935e-06
  32    2.1407057468205e-05
  33    -0.00010466362635582
  34    0.00088435087533813
  35    0.0021319651672925
  36    0.00065524949659429
  37    0.00010024758636602
  38    -0.00016873249335375
  39    2.5949173175618e-08
  40    0.0026198306613448
  41    0.0010905601915671
  42    -4.3653980423079e-07
  43    0.0011735732956814
  44    -0.0014462799915582
  45    -1.1843868857473e-07
  46    -6.6352272499906e-05
  47    -6.2024126208765e-09
  48    -2.1242718866662e-08
  49    -2.9021025770831e-05
  50    4.7966942004079e-06
  51    0.00023256991760331
  52    -1.6367794992141e-07
  53    6.7280277249886e-08
  54    0.00049625581410676
  55    0.0013213456808318
  56    3.0185696353322e-08
  57    4.0687538398236e-05
  58    -1.4989601553244e-05
  59    -1.2655484507666e-08
  60    7.6368051997707e-10
  61    -8.2512055291318e-05
  62    0.00017606706875357
  63    2.1412859058333e-05
  64    -0.00010469594780347
  65    0.00088547757683539
  66    0.0021250499697873
  67    0.00067379603708426
  68    9.9230025903238e-05
  69    0.00016958287483276
  70    -1.7536746445055e-08
  71    0.0026243102475732
  72    -0.0010756888734082
  73    1.147868000888e-07
  74    0.0011697050545336
  75    0.0014593012037321
  76    -2.5630353512572e-09
  77     -6.6328687274e-05
  78    8.141133678084e-10
  79    -1.6324997913511e-09
  80    -2.8961668572859e-05
  81    -5.1787916318541e-06
  82    0.00023340833476741
  83    3.1776576606884e-09
  84    9.2810140037927e-08
  85    0.00051396590533487
  86    -0.0013166984355676
  87    -1.7127553124153e-08
  88    4.0647714644026e-05
  89    1.535559180292e-05
  90    -2.4135488851859e-08
  91    9.5858104892931e-09
  92    -7.8924681061492e-05
  93    -0.00017790606675948
  94    3.7688282349165e-05
  95    -0.00020238700755237
  96    -0.00054794669094336
  97    0.0026120802956182
  98    -0.0016902849532321
  99    -3.5134521222558e-05
 100    -3.8547983442167e-05
 101    1.1730994865091e-08
 102    0.0058909763915475
 103    -0.0052354094251137
 104    3.1860538944998e-07
 105    0.00021747618404129
 106    0.0028167109307283
 107    6.0611302737148e-09
 108    -0.00033666315793537
 109    4.749654246748e-08
 110    -6.9400057842042e-08
 111    -0.00016111857956688
 112    -0.00046461837740336
 113    -0.00085430466848216
 114    2.609712651958e-07
 115    -4.078537209054e-07
 116    -0.0018781031383398
 117    -0.0030548897825234
 118    -9.4760794565568e-08
 119    -0.00029089507643133
 120    0.00051484172246019
 121    -6.8576661393122e-08
 122    -8.0184774246268e-08
 123    -0.00011767158888287
 124    -9.8655095413771e-05
 125    3.7693233860887e-05
 126    -0.00020243500089159
 127    -0.00054797953434289
 128    0.0026178325430862
 129    -0.0017015181851787
 130    -3.5132609624673e-05
 131    3.8568115761285e-05
 132    -8.6282845066431e-09
 133    0.0058545916024559
 134    0.0052795548513262
 135    2.8816596429135e-08
 136    0.00024068235926136
 137    -0.0028223779757397
 138    -5.7564489284944e-08
 139    -0.00033674567996289
 140    -2.0196712254342e-09
 141    2.9194136976003e-10
 142    -0.00016745480166961
 143    0.00046251769189755
 144    -0.00085482849547441
 145    -1.7995037182422e-09
 146    -1.2396705817191e-11
 147    -0.0019209090201458
 148    0.0030280206750122
 149    -6.9631299082832e-09
 150    -0.00028724378698904
 151    -0.00051682083436586
 152    -1.7567725888382e-09
 153    -1.1941022279845e-09
 154    -0.00011920661244178
 155    9.6224681974006e-05
 156    5.1378177295998e-05
 157    0.0011701950694656
 158    0.0006306754224909
 159    0.00014442206026535
 160    -1.9710377176452e-05
 161    -6.5930651538526e-08
 162    5.1372799160893e-05
 163    0.0011712401274697
 164    0.00063220443590534
 165    0.00014440385848948
 166    2.0702343827406e-05
 167    2.3576564592257e-09
 168    0.0002645348163718
 169    0.00054948827165048
 170    -0.0015573401266544
 171    3.071666821361e-05
 172    -0.00013436038631603
 173    -2.3365062300458e-08
 174    0.00026468503620409
 175    0.00054891975904479
 176    -0.0015608328538417
 177    3.0017280565331e-05
 178    0.00013479489818739
 179    -1.2720699666925e-09
 Sym= A
 Ene=    -10.22493732
 Spin= Alpha
 Occup=    2.00000
   1    -1.3001701913856e-06
   2    -1.2814015137802e-05
   3    0.0001367176590115
   4    -0.00032981944183657
   5    0.00028045352164133
   6    -2.4107764328146e-05
   7    0.00080337546603267
   8    -4.1261667888542e-08
   9    0.00014115440170881
  10    -0.0040951646050212
  11    2.210685920064e-07
  12    -0.00013002582381418
  13    0.0013106104939457
  14    -1.3183701988931e-07
  15    -2.5146181184073e-06
  16    3.5219376720518e-09
  17    -1.9975436143119e-08
  18    -1.9866827078665e-06
  19    -0.00025445198839912
  20    5.8914480474813e-05
  21    -9.8073633145141e-08
  22    1.9156556970647e-07
  23    2.0881313129399e-05
  24     0.002638591148121
  25    -6.2243550672456e-08
  26    -1.7717687304233e-05
  27    0.00050695795427355
  28    -3.6743822411991e-08
  29    -8.0921352529135e-08
  30    -3.4021832889218e-05
  31    -0.0002389663280989
  32    0.0022361962286939
  33    0.0030656764743946
  34    -0.00050563056153894
  35    0.0099386538698881
  36    -0.0049815435099124
  37    0.00019693316138403
  38    0.00037067810152909
  39    2.7515527985116e-08
  40    -0.0019393812385063
  41    -0.011671465966843
  42    -8.3443229873814e-08
  43    -0.00056088858625741
  44    -0.0041894766578523
  45    2.7095924154774e-08
  46    0.00013809176446835
  47    5.3060983278858e-08
  48    7.6422698933014e-09
  49    -0.00019541658229517
  50    -0.00028812223969569
  51    -0.00023488818132762
  52    8.9844757362025e-08
  53    2.4337098695967e-07
  54    -0.0047705767358389
  55    -0.0028154446027988
  56    -1.8586457819724e-08
  57    0.00041865864458715
  58    0.00040627841918142
  59    3.1884330710764e-08
  60    1.3670097185781e-07
  61    -0.00026686167013751
  62    -0.0006874340209937
  63    -0.0020546546899471
  64    -0.0028096633693037
  65    0.0005272218598668
  66    -0.010254075256819
  67    0.0048798066313329
  68    -0.00019827471705822
  69    0.00036421613531196
  70    7.7183741326317e-10
  71     0.001672940296229
  72    -0.011601823512993
  73    1.578183059181e-07
  74    0.00079066723843586
  75    -0.0038620483280188
  76    9.308662917962e-09
  77    -0.00011317206921276
  78     1.95731526247e-08
  79    1.0014038385855e-08
  80    0.00017486741775874
  81    -0.00026950729661986
  82    0.00028487631208873
  83    -1.1980320958591e-08
  84    6.0186394817034e-08
  85    0.0046570289812195
  86    -0.0026086708489953
  87    -2.4047916208332e-09
  88    -0.0003804774794874
  89    0.00038330326143911
  90    -8.2676119585423e-09
  91    -1.1034572525261e-08
  92    0.00025552245930009
  93    -0.00063317859907014
  94      0.34418542271569
  95      0.44845572655872
  96     0.028819342510741
  97    -0.012639088194949
  98     0.012669051740896
  99    0.00024466914062568
 100    -0.0013902399333097
 101    2.0928017787754e-07
 102    -0.0017286337169393
 103    0.0012369464635908
 104    5.133753452086e-07
 105    -0.0026277836619297
 106    0.00033384029553994
 107    2.5294989107635e-07
 108    -0.0012226331042489
 109    3.3474584407033e-08
 110    -3.4280950621462e-08
 111    -0.0001343508160304
 112    7.8033441500267e-05
 113    6.3953664484644e-05
 114    -2.2417439210203e-07
 115    1.6331897745185e-09
 116     0.001699032722871
 117    -0.0018812304703297
 118    -1.5274990539312e-07
 119    -0.0002325079227595
 120    -0.00015730086339027
 121    3.3538477292249e-08
 122    -1.8705002077041e-08
 123    -0.0014527592569126
 124    -0.00046468796293413
 125     -0.31539182510875
 126     -0.41091630180612
 127    -0.026639877498945
 128     0.011953100259524
 129    -0.012241956745531
 130    -0.00020443223532008
 131    -0.0013245489269463
 132    4.3720726218157e-08
 133    0.0015521396458789
 134    0.0012456375160849
 135    -1.0158170121773e-07
 136    0.0027431134208928
 137    -9.6671836006039e-05
 138    5.5811625252562e-08
 139    0.0011303884105131
 140    -1.294085921518e-08
 141    2.9347269264822e-08
 142    0.00013400117179464
 143    7.8928286570438e-05
 144    -0.00016372044384862
 145    8.5444131616664e-08
 146    -1.4389331026852e-07
 147    -0.0016488820618016
 148    -0.0019038618963206
 149    3.0940317658628e-08
 150    0.00020611498485265
 151    -0.00016984892001909
 152    4.522248824747e-08
 153    1.9538943075045e-08
 154    0.0013569443299237
 155    -0.0003980728469989
 156    8.0867745085157e-05
 157    0.00043513992552509
 158    0.0020593667791805
 159    -0.00010757570677395
 160    -0.00048043183689264
 161    -2.9127342188567e-08
 162    -8.8622429991399e-05
 163    -0.00049037701888604
 164    -0.0018069181623294
 165    8.9985186929779e-05
 166    -0.00047098897567988
 167    -9.8514855186512e-09
 168    -0.0004947477776326
 169    0.00051450157988457
 170    -0.0021723829765299
 171    0.00086681938332239
 172    0.0012642400026208
 173    8.3872173793554e-08
 174    0.00045497409330739
 175    -0.00067311178780568
 176     0.001804035715357
 177    -0.00079784488957684
 178    0.0011375487563482
 179    -2.7685721474832e-08
 Sym= A
 Ene=    -10.22490563
 Spin= Alpha
 Occup=    2.00000
   1    -3.0173635085425e-05
   2    -0.00029463439994118
   3    0.0031495681753077
   4    -0.0076153876621241
   5    0.0063809640653825
   6    -0.00048979815629371
   7    -3.6958431025257e-05
   8    -4.6903869186966e-08
   9     0.002937341017708
  10    0.00019184036657668
  11    2.521936102727e-07
  12    -0.0028654784397426
  13    -6.6228449889071e-05
  14    -3.1891697942759e-07
  15    -5.7279297307404e-05
  16    7.2233491496705e-09
  17    -7.8540376009332e-09
  18    -8.6491534437051e-05
  19    1.0487341306199e-05
  20    0.0013607314269861
  21    -1.1787947139347e-07
  22    1.4851585495706e-07
  23    0.00090901458315512
  24    -0.00010994903049792
  25    -6.110270077515e-08
  26    -0.00036588103859835
  27    -2.347528070852e-05
  28    -1.6628502145658e-08
  29    -7.8195342737173e-08
  30    -0.00083998835869511
  31    1.7009268397864e-06
  32    0.0019736054351533
  33    0.0027868259787045
  34    0.00028292926633108
  35    -0.0040757179640438
  36    -0.00094544082024363
  37    6.9067153554418e-06
  38    4.1438541215419e-05
  39    -1.548865105374e-08
  40    -0.0038986830089548
  41    -0.00015343396412818
  42    4.143278657019e-07
  43     0.002348891412348
  44    -0.0035027182944176
  45    -4.6248890355874e-07
  46    0.00027886461097087
  47     5.43023400286e-08
  48    1.5334470791461e-08
  49    -0.00026949237258921
  50    -0.00017385442192956
  51    0.0005909149794425
  52    2.7560394358635e-07
  53    1.6168910650751e-07
  54     -0.00151507401924
  55    -0.0015000292736307
  56    -9.2543586694093e-08
  57    0.00045122240559318
  58    0.00021558592647453
  59    1.0372850683963e-07
  60    6.6215521983479e-08
  61    -0.0002695179323908
  62    -0.0005325426990623
  63    0.0021597906963898
  64    0.0030418638020983
  65    0.00023617657929077
  66    -0.003182663502885
  67    -0.001345438403813
  68    2.4351704581048e-05
  69    -7.3578820291866e-05
  70    6.0737594436428e-10
  71    -0.0040505205585267
  72    0.0011411316182848
  73    4.1776124192903e-08
  74    0.0022761159012333
  75    0.0038787780641025
  76    5.0801183290669e-08
  77    0.00028978229808885
  78    1.6608495377257e-08
  79    7.6306369223064e-09
  80    -0.00028811196636563
  81    0.00019416691377914
  82    0.00056679266482814
  83    -7.3318642222668e-08
  84    1.0486582661561e-09
  85    -0.0019458120441027
  86    0.0017138891291179
  87    -1.8649512490141e-09
  88    0.00048744582615354
  89    -0.00024698644320956
  90    -4.5699686634223e-09
  91    -6.4640163164941e-09
  92    -0.00030414482078913
  93    0.0005845179864422
  94      0.31536154058739
  95      0.41115957173871
  96     0.023744207039323
  97    -0.0072586661279172
  98    0.0043449558281815
  99    0.0003533197701478
 100    -0.00071006040705977
 101    1.8188934877645e-07
 102    -0.0018336092495204
 103    -5.9894985852938e-05
 104    3.0052594766063e-07
 105    0.0014263804350826
 106    0.0051315204183561
 107    3.5497902184646e-07
 108    -0.0010094171016054
 109    5.7300171187546e-09
 110    -4.6201897235019e-08
 111    6.9636784800983e-06
 112    3.380203963345e-06
 113    -0.0011606435638263
 114    1.3144895091758e-07
 115    1.2764946706373e-07
 116    0.00019830545987843
 117    8.4637697104196e-05
 118    -1.8660824642218e-07
 119    -0.00030810164818787
 120    0.0001679102110417
 121    -5.2486940808164e-08
 122    -8.6235247274337e-09
 123    -0.0011368349018404
 124    -0.00043237776109241
 125      0.34415769114538
 126       0.4486781962528
 127      0.02616591947597
 128    -0.0083367674487174
 129    0.0054146826185536
 130    0.00036799277979748
 131    0.00083107359808646
 132    -1.6927091604586e-08
 133    -0.0019661822704371
 134    -6.2234344811831e-05
 135    7.0632902321047e-08
 136    0.0012337720136566
 137    -0.005143924219665
 138    -7.3679045394382e-08
 139    -0.0011125957522623
 140    -1.7798150248701e-08
 141    7.162066354067e-09
 142    -5.4145652582027e-06
 143    -9.6206167248513e-06
 144    -0.0011508198054909
 145    5.6253135024771e-08
 146    -3.8191490070244e-08
 147    0.00034186227348918
 148    8.7668037682825e-05
 149    7.3759502808438e-10
 150    -0.000326576751671
 151    -0.00015592513214552
 152    2.0136494819215e-08
 153    -2.0885047232769e-09
 154    -0.0012692065426385
 155    0.00044561535894007
 156    -9.1650087719189e-05
 157    -0.00064208838170602
 158    0.0027933543149336
 159    -0.00023273835102211
 160    -8.0219260673953e-05
 161    3.3260399387848e-08
 162    -8.4218624118867e-05
 163    -0.00060075459571457
 164    0.0029655612238214
 165    -0.00024173022302187
 166    0.0001201939772929
 167    -2.0080009515946e-08
 168    -0.0004404584598581
 169    -0.001860786023104
 170    -0.0041235894040406
 171    0.00084432482178968
 172    0.0013456170582291
 173    1.1808624460717e-07
 174    -0.00048230933870162
 175    -0.0018114578091279
 176    -0.0043024460364695
 177    0.00092675561505237
 178    -0.0014453173186112
 179    -1.7649706686879e-08
 Sym= A
 Ene=    -10.17645727
 Spin= Alpha
 Occup=    2.00000
   1    9.2608977940417e-06
   2    -0.00011479792134253
   3    0.0015548771257652
   4    -0.006169911342863
   5    -0.0026264399605667
   6    -0.00026726147311807
   7    -7.9097635667467e-07
   8    -2.9635841994472e-08
   9    0.0027397195862959
  10    6.3194798931192e-06
  11    1.8437475770501e-07
  12    0.00097047683092648
  13    -3.8570638321339e-06
  14    5.2463795883299e-08
  15    3.5025872750615e-05
  16    1.9194259243679e-08
  17    -4.5662180849134e-09
  18    -7.7351893972867e-06
  19    -4.4807425245314e-08
  20    0.00018097272856891
  21    -1.0046067641988e-07
  22    4.2338752121681e-08
  23    -7.9933369388872e-05
  24    1.2187685809974e-06
  25    5.5484161532918e-10
  26    1.3906346834247e-05
  27    3.9367358008953e-07
  28    7.8751650596746e-09
  29    -4.2845770237441e-09
  30    -1.6371281640457e-05
  31    -2.4479276341237e-07
  32      0.32816489202451
  33       0.4279147468279
  34     0.026333696723369
  35    -0.00047773435034612
  36    0.0097092899516299
  37    0.00028863495917644
  38    -0.00072468732924341
  39    -5.7752286714671e-08
  40     0.007807626583476
  41    0.0046575792449915
  42    -4.8192676244116e-07
  43    0.0020892308662165
  44    0.00089883942194215
  45    -2.3249190255125e-07
  46    -0.00087531931974765
  47    -1.4593860480197e-07
  48    3.6014374969253e-08
  49    0.00037181931570349
  50    -0.00024991131263565
  51    -0.00060010440029855
  52    -4.3286400263565e-07
  53    -1.4458143947546e-07
  54    0.0038253298386723
  55    0.0019041519968286
  56    -3.2394259312047e-08
  57    -6.4066981146574e-06
  58    -0.00073590651081674
  59    -2.1043384943625e-08
  60    -1.5074875561614e-07
  61    0.00027193169151422
  62    0.00037831296610032
  63      0.33181185683162
  64      0.43266699629743
  65      0.02663035417897
  66    -0.00060132264998406
  67     0.010002638925931
  68    0.00029221768298154
  69    0.00072827630008952
  70    -1.3689223751025e-09
  71    0.0077912446183179
  72    -0.0045399022990974
  73    -8.5916597547436e-08
  74    0.0021043628039677
  75    -0.00084880480866602
  76    5.1431905209517e-08
  77    -0.0008881943357792
  78    -6.4856733509387e-09
  79    -3.6439384427795e-09
  80    0.00036637433849616
  81    0.00025634503744176
  82    -0.00060964480099573
  83    -3.0607608689363e-08
  84    -2.8848529567181e-08
  85    0.0038026396939705
  86    -0.0018619597360803
  87    1.8943066480453e-08
  88    -7.6081862658068e-06
  89    0.00073167668522352
  90    -7.1033009789156e-09
  91    -7.8152752403782e-09
  92    0.00028628574463209
  93    -0.00039153381394597
  94    -0.0021735821528426
  95    -0.002621979776779
  96    4.2763285127097e-05
  97    -0.0079403837129957
  98    -0.0060562878667584
  99    -0.00035176148047677
 100    0.00025365589124423
 101    -1.2716627397796e-09
 102      0.01134060589588
 103    0.00019807996840086
 104    -5.0767947446127e-07
 105    0.0024019133035763
 106    0.00056384863470802
 107    -1.0909268165593e-07
 108    0.00025338581884511
 109    7.2575984566252e-08
 110    4.7514731046326e-09
 111    -0.0003348634906793
 112    -0.00024365345366615
 113    0.00098143621652656
 114    6.2273731410494e-07
 115    7.0425475076429e-08
 116    -0.0048216925205689
 117    -0.003014256835627
 118    5.2072113930531e-08
 119    -0.00070104438575989
 120    0.00013122610124879
 121    -2.1401155692543e-07
 122    -1.3051396171195e-07
 123    0.00045031579570417
 124    0.00047953459697049
 125    -0.0021972547581139
 126    -0.0026515776459241
 127    4.8871006236284e-05
 128    -0.0079082436792763
 129    -0.0061647571798671
 130    -0.00035073936872099
 131    -0.000255124826874
 132    -2.0451379019431e-08
 133     0.011322541991337
 134    -0.00010894665494934
 135    6.7555416563693e-08
 136    0.0024278527596102
 137    -0.00055823006875093
 138    -4.0738865000152e-08
 139    0.00025545342084982
 140    -4.008118015657e-09
 141    -1.7838089705577e-08
 142    -0.00034198043550154
 143    0.00023915514166764
 144    0.00099048426162708
 145    -4.2383185674281e-08
 146    7.598551786275e-08
 147    -0.0048694629554524
 148    0.0029467131212369
 149    -1.6324997359367e-08
 150    -0.00070485164958098
 151    -0.00013485790950131
 152    -7.9847777468635e-09
 153    -2.0182466779018e-08
 154    0.00046845824994488
 155    -0.00047409059594129
 156    -0.00036067319956789
 157    -0.000871960873534
 158    -0.0010879993585297
 159    -0.0010282976977933
 160    0.0012051232077403
 161    9.9946829748506e-08
 162    -0.00036640236974097
 163    -0.00087705050018446
 164    -0.0011239966864579
 165    -0.0010362648133136
 166     -0.00121963303707
 167    3.3554878529989e-09
 168    2.0109536986186e-05
 169    -0.0008227712197606
 170    0.00024701922948828
 171    0.00047451390056365
 172    -9.3836377382897e-05
 173    -2.2133460994838e-08
 174    2.1720361824102e-05
 175    -0.00081586217829873
 176    0.00025442216697386
 177    0.00047374790806973
 178    9.9668188303388e-05
 179    1.2498798304229e-08
 Sym= A
 Ene=    -10.17599124
 Spin= Alpha
 Occup=    2.00000
   1    5.0698673966021e-08
   2    -6.2938685413955e-07
   3    8.5919804751841e-06
   4    -3.4434190322237e-05
   5    -1.5170551790328e-05
   6    -1.3748853964952e-06
   7    -2.1700405511336e-05
   8    9.6841418266827e-09
   9    1.3048919465058e-05
  10    0.00059872282268665
  11    -8.7269058820922e-08
  12    5.8347036352663e-07
  13    0.0014427795663661
  14    -4.951051281891e-08
  15    2.0015357362333e-07
  16    -1.3992861521961e-09
  17    9.8648931256235e-09
  18    1.6832314873898e-08
  19    -9.6240698400002e-06
  20    1.0120330089482e-06
  21    3.7777268547816e-08
  22    -8.0011243381862e-08
  23    1.7585297432368e-06
  24    -0.00029089707893014
  25    9.9108621330586e-09
  26    3.1468542279528e-07
  27    -6.5439417074656e-05
  28    5.9156732095851e-09
  29    2.0498039149074e-08
  30    -2.3516919218014e-07
  31    1.0771306634262e-05
  32      0.33189845525828
  33      0.43247307353646
  34     0.027184175472792
  35    -0.011032452195053
  36     0.025769311820179
  37    0.00079509909328913
  38    -0.00013880996127772
  39    -9.0329051513407e-08
  40    -0.0040668887540078
  41    -0.0050176421109683
  42    2.6712472999981e-07
  43    0.0007108626513659
  44    -0.0030098125175696
  45    8.7796191534704e-08
  46    -0.0012009018961453
  47    -1.6685821864375e-07
  48    3.3382074766391e-08
  49    -0.00014617525149781
  50    -0.00015810079090369
  51    -0.00085576039790094
  52    1.1186463430216e-07
  53    -3.4742742448199e-08
  54    -0.0041790129923992
  55    0.0012447474670971
  56    -8.0390756061863e-08
  57    0.00036024955767893
  58    0.00034093124624275
  59    -4.0058393863609e-09
  60    -1.4127431256985e-07
  61    0.00061216136109912
  62    0.0017737874500243
  63     -0.32825262258939
  64     -0.42771919545742
  65    -0.026890976163006
  66     0.011034439638794
  67    -0.025660032911364
  68    -0.00079095040227207
  69    -0.00013653913854148
  70    2.5067610573107e-08
  71    0.0041912561749912
  72    -0.005041928642787
  73    -1.5839236619121e-07
  74    -0.00066585635115921
  75    -0.0030240939609196
  76    -6.0526551288671e-08
  77    0.0011907810857059
  78    9.7778976989463e-09
  79    -5.4720058553102e-10
  80    0.00015255894088039
  81    -0.00015294490587959
  82    0.00084808473798909
  83    -1.2000973139485e-07
  84    -8.4871492195123e-08
  85    0.0042052090653282
  86       0.0012819310608
  87    2.7081030555997e-08
  88    -0.00036277272087838