[Molden Format]
[Title]
[Atoms] AU
C      1     6 -0.12608252703468E+01  0.00000000000000E+00  0.00000000000000E+00
C      2     6  0.12608252703468E+01  0.00000000000000E+00  0.00000000000000E+00
H      3     1 -0.23079225159989E+01 -0.17555555697724E+01  0.13379260962313E+00
H      4     1 -0.23077335433865E+01  0.17555555697724E+01 -0.13379260962313E+00
H      5     1  0.23079225159989E+01  0.17555555697724E+01 -0.13379260962313E+00
H      6     1  0.23079225159989E+01 -0.17555555697724E+01  0.13379260962313E+00
[GTO]
           1 0
 s           4   1.0000000000000000     
   51.049363095579913      -0.16312063210127389     
   8.7911227406887544      -0.19911024581000730     
  0.70640422258929825       0.31882047753655751     
  0.26922813413411617       0.12706504184240380     
 p           4   1.0000000000000000     
   5.8263656140800002       0.73716451545209605     
   1.5106896018720002       0.68216371614850257     
  0.53256483288000001       0.35783053929253711     
  0.21202323690600003        5.3983030275847881E-002

           2 0
 s           4   1.0000000000000000     
   51.049363095579913      -0.16312063210127389     
   8.7911227406887544      -0.19911024581000730     
  0.70640422258929825       0.31882047753655751     
  0.26922813413411617       0.12706504184240380     
 p           4   1.0000000000000000     
   5.8263656140800002       0.73716451545209605     
   1.5106896018720002       0.68216371614850257     
  0.53256483288000001       0.35783053929253711     
  0.21202323690600003        5.3983030275847881E-002

           3 0
 s           3   1.0000000000000000     
   3.3702276975336001       0.27359110588908298     
  0.61389118221497996       0.26460540653860526     
  0.16614291148415999        8.2465947534082318E-002

           4 0
 s           3   1.0000000000000000     
   3.3702276975336001       0.27359110588908298     
  0.61389118221497996       0.26460540653860526     
  0.16614291148415999        8.2465947534082318E-002

           5 0
 s           3   1.0000000000000000     
   3.3702276975336001       0.27359110588908298     
  0.61389118221497996       0.26460540653860526     
  0.16614291148415999        8.2465947534082318E-002

           6 0
 s           3   1.0000000000000000     
   3.3702276975336001       0.27359110588908298     
  0.61389118221497996       0.26460540653860526     
  0.16614291148415999        8.2465947534082318E-002

[MO]
Sym=     1a
Ene=  -0.60726850400028642     
Spin= Alpha
Occup=     2.00000000
           1  0.46270884996112432     
           2  0.15489178999852576     
           3   7.1593168282109847E-006
           4  -5.4561854839303627E-007
           5  0.46269796341288438     
           6 -0.15489794217167777     
           7   3.2876443816656053E-006
           8  -2.5055459870184137E-007
           9  0.12399899258013736     
          10  0.12401892257220219     
          11  0.12399852936341811     
          12  0.12399553756685582     
Sym=     2a
Ene=  -0.54725247677859334     
Spin= Alpha
Occup=     2.00000000
           1  0.36899537228266494     
           2 -0.22419508887346837     
           3   1.7482662653647720E-005
           4  -1.3323708459095537E-006
           5 -0.36901844310375659     
           6 -0.22418848641344122     
           7   9.1596058230713828E-006
           8  -6.9806253196378624E-007
           9  0.23057984654476313     
          10  0.23059964682064962     
          11 -0.23059307449305724     
          12 -0.23060206646036727     
Sym=     3a
Ene=  -0.50600319464154664     
Spin= Alpha
Occup=     2.00000000
           1  -2.7828849602141361E-005
           2   1.7216332306400181E-006
           3  0.40755149901587850     
           4  -3.1059898956215522E-002
           5  -8.9606819193855859E-008
           6   1.8464434849285064E-005
           7  0.40753060753514359     
           8  -3.1058306796004565E-002
           9 -0.25383856696488122     
          10  0.25382611828936558     
          11  0.25381785957967623     
          12 -0.25380258007025880     
Sym=     4a
Ene=  -0.46847379489316859     
Spin= Alpha
Occup=     2.00000000
           1  -7.3841007720724409E-003
           2 -0.48080817375179763     
           3  -5.4005011672759294E-006
           4   4.1157748446194960E-007
           5  -7.3975067083734180E-003
           6  0.48080388111831157     
           7   4.1481601248434933E-006
           8  -3.1613534598474396E-007
           9  0.23725712259236550     
          10  0.23722152937143173     
          11  0.23724742455819056     
          12  0.23723997022713775     
Sym=     5a
Ene=  -0.43334630096324278     
Spin= Alpha
Occup=     2.00000000
           1   1.0098632736263302E-005
           2   1.1552055169322468E-005
           3 -0.38704586363343829     
           4   2.9497144397468141E-002
           5   7.2864806021797838E-006
           6  -2.0726776976665093E-005
           7  0.38707321507285447     
           8  -2.9499228877457227E-002
           9  0.35195536889328388     
          10 -0.35195623828772293     
          11  0.35197200226060327     
          12 -0.35198503836315603     
Sym=     6a
Ene=  -0.41297801172785115     
Spin= Alpha
Occup=     2.00000000
           1  -9.3046426754205680E-017
           2  -3.7854283903883517E-016
           3  -4.8772207199777866E-002
           4 -0.63996300125131578     
           5  -2.5773854130845113E-016
           6   7.8696804714278929E-017
           7  -4.8772125932265598E-002
           8 -0.63996193490218511     
           9   4.8341119155890953E-016
          10   6.9157547778216989E-017
          11   6.9958605726875589E-016
          12  -8.3615922225818202E-017
Sym=     7a
Ene=  -0.21207115192304163     
Spin= Alpha
Occup=     0.00000000
           1   3.2917803780185474E-017
           2  -3.5241135524060335E-017
           3  -6.0600644371683415E-002
           4 -0.79516947205217359     
           5   6.6389306173319708E-018
           6  -7.3343951995177012E-018
           7   6.0600709776771587E-002
           8  0.79517033026300499     
           9  -2.4137196629883009E-017
          10   3.2253463284130913E-017
          11   1.1043589369796972E-016
          12  -4.6719154867327693E-018
Sym=     8a
Ene=   0.12845797514145177     
Spin= Alpha
Occup=     0.00000000
           1 -0.79451498733037795     
           2  0.20695024875614626     
           3   5.4083857658191663E-004
           4  -4.1217837698634738E-005
           5  0.79488514852949210     
           6  0.20722481171859641     
           7   4.0261206059873529E-004
           8  -3.0683459515881059E-005
           9  0.55314853285056009     
          10  0.55221480474221718     
          11 -0.55334251276545188     
          12 -0.55257760141935230     
Sym=     9a
Ene=   0.16194528779482426     
Spin= Alpha
Occup=     0.00000000
           1   1.2106031747894816E-004
           2  -3.0660203762708564E-004
           3 -0.68801017262528419     
           4   5.2433929194693328E-002
           5   1.2429271256640885E-003
           6   6.2207345407002301E-004
           7 -0.68820525449159020     
           8   5.2448796574816464E-002
           9 -0.61240641986649191     
          10  0.61219410547584530     
          11  0.61151424627948436     
          12 -0.61332282000289184     
Sym=    10a
Ene=   0.18008606452996645     
Spin= Alpha
Occup=     0.00000000
           1 -0.71857167369960506     
           2  0.47052854293525909     
           3  -6.1288258907906442E-004
           4   4.6708382461498894E-005
           5 -0.71814161998272907     
           6 -0.47037816428408730     
           7  -7.4160724693832594E-004
           8   5.6518614729019827E-005
           9  0.52913171832788464     
          10  0.53023919826010701     
          11  0.53000425185568489     
          12  0.52872815744686785     
Sym=    11a
Ene=   0.43062291172281103     
Spin= Alpha
Occup=     0.00000000
           1  -1.2570023421274140E-004
           2   9.1676451843717221E-005
           3 -0.90535997780920019     
           4   6.8998370752305055E-002
           5  -1.6187567916374317E-005
           6   3.1029753524062575E-005
           7  0.90516858930288124     
           8  -6.8983784846764276E-002
           9 -0.59233001895111181     
          10  0.59255819431004786     
          11 -0.59229580253253888     
          12  0.59226720994165649     
Sym=    12a
Ene=   0.54635287962185153     
Spin= Alpha
Occup=     0.00000000
           1 -0.57704007804246016     
           2  -1.0631909431238844     
           3  -4.1866469040681967E-005
           4   3.1906846158243888E-006
           5  0.57701516765319150     
           6  -1.0632134435880023     
           7   2.9547650731435293E-005
           8  -2.2518554056702702E-006
           9 -0.19064232708775089     
          10 -0.19056294168592586     
          11  0.19061100139477288     
          12  0.19064615069292334     
