[Molden Format]
made by pyscf v[2.13.1]
[Atoms] (AU)
O   1   8     1.15707930607119     0.00000000000000     0.00000000000000
C   2   6    -1.15707930607119     0.00000000000000     0.00000000000000
H   3   1    -2.26767134947807     0.45844755781948    -1.70037556688364
H   4   1    -2.26767134947807    -0.45806961259457     1.70037556688364
[GTO]
1 0
 s    6 1.00
          27032.382631  0.00057227335211155
          4052.3871392  0.0044353233492995
           922.3272271   0.023020107706038
          261.24070989   0.092822490667928
          85.354641351    0.29378500009671
          31.035035245    0.67401604501641
 s    2 1.00
          12.260860728    0.63839937025506
          4.9987076005    0.39534587125718
 s    1 1.00
          1.1703108158                   1
 s    1 1.00
         0.46474740994                   1
 s    1 1.00
         0.18504536357                   1
 p    4 1.00
          63.274954801   0.012018332222616
          14.627049379   0.083005421790056
          4.4501223456    0.31991743925964
          1.5275799647    0.70715542916104
 p    1 1.00
         0.52935117943                   1
 p    1 1.00
          0.1747842127                   1
 d    1 1.00
                 2.314                   1
 d    1 1.00
                 0.645                   1
 f    1 1.00
                 1.428                   1

2 0
 s    6 1.00
          13575.349682  0.00060645503603591
           2035.233368  0.0046979088884982
          463.22562359   0.024332477647552
          131.20019598   0.097399968307759
          42.853015891     0.3019558425378
          15.584185766    0.66233609137875
 s    2 1.00
          6.2067138508    0.65595308539952
          2.5764896527    0.37585633285142
 s    1 1.00
         0.57696339419                   1
 s    1 1.00
         0.22972831358                   1
 s    1 1.00
        0.095164440028                   1
 p    4 1.00
          34.697232244   0.011327220003114
          7.9582622826   0.076169659202087
          2.3780826883    0.30192252202676
         0.81433208183    0.72785027349547
 p    1 1.00
         0.28887547253                   1
 p    1 1.00
         0.10056823671                   1
 d    1 1.00
                 1.097                   1
 d    1 1.00
                 0.318                   1
 f    1 1.00
                 0.761                   1

3 0
 s    3 1.00
             34.061341   0.025439307208879
             5.1235746    0.19008594890375
             1.1646626    0.85244113011042
 s    1 1.00
            0.32723041                   1
 s    1 1.00
            0.10307241                   1
 p    1 1.00
                   0.8                   1

4 0
 s    3 1.00
             34.061341   0.025439307208879
             5.1235746    0.19008594890375
             1.1646626    0.85244113011042
 s    1 1.00
            0.32723041                   1
 s    1 1.00
            0.10307241                   1
 p    1 1.00
                   0.8                   1

[5d]
[7f]
[9g]

[MO]
 Sym= A
 Ene=     -19.1516115
 Spin= Alpha
 Occup=    2.00000
   1      0.43506915204467
   2      0.63968572188837
   3     0.034982685430114
   4     -0.02523151687991
   5    0.0081245064318648
   6    -0.0021523219613206
   7    -1.0002187166956e-08
   8    4.2918330504869e-10
   9    0.0050472451550533
  10    -1.428303314502e-08
  11    -6.6261065426929e-10
  12    -0.00068470018345742
  13    1.2039220932208e-08
  14    -2.1899595463299e-08
  15    -0.00020870613358757
  16    -6.5077381455975e-10
  17    2.8740591947718e-05
  18    0.00026259396966508
  19    4.7613055744001e-10
  20    0.00077416618765042
  21    5.6219679545288e-09
  22    -6.1170164923364e-05
  23    -0.0011304083327742
  24    4.9797781461987e-09
  25     2.35334577419e-09
  26    -0.00011669407950308
  27    1.8710910817109e-09
  28    -1.3321408109624e-10
  29    -7.4930713033971e-06
  30    0.00017170356161742
  31    -1.9946580858323e-10
  32    2.7731816772842e-05
  33    -0.00018143899960298
  34    0.00072394508514546
  35    0.0033169226993004
  36    -0.0029998827301464
  37    0.00076137458241423
  38    1.3735479314219e-08
  39    -4.4435414718582e-09
  40    0.0060429949767124
  41    -1.3689376794233e-07
  42    -4.9665108952374e-08
  43    -0.0018425756589405
  44    -3.8892052363926e-08
  45    6.8149365700445e-08
  46    -0.00023651914325239
  47    5.3079573946689e-09
  48    -6.5277068233044e-06
  49    0.00043212506717825
  50    -1.1668700061692e-09
  51    -0.0018818207721667
  52    2.4841978598688e-08
  53    0.00042688147263598
  54    0.0017905053541732
  55    9.6224442781302e-08
  56    -4.3146955882006e-08
  57    0.00033188758649609
  58    -5.3968772078825e-08
  59    -2.8047537052429e-08
  60    -0.00016473216293255
  61    3.4362134899035e-05
  62    -1.0161509408044e-08
  63    0.00027473695560252
  64    0.0012493850427773
  65    -0.0001294518545189
  66    0.0002282660454815
  67    -4.6226455684212e-05
  68    0.00017141307007974
  69    0.00027475904729071
  70    0.0012493943980299
  71    -0.00012955363097644
  72    0.00022827409694661
  73    4.6154607390198e-05
  74    -0.00017136832327908
 Sym= A
 Ene=    -10.27923629
 Spin= Alpha
 Occup=    2.00000
   1    -7.2411877626215e-05
   2    -0.00025242930349792
   3     0.002718864569981
   4    -0.0093422828148008
   5    -0.0032563810871246
   6    -0.00068471641077677
   7    3.9457810484668e-10
   8    2.0863961098462e-09
   9    0.0074196826887432
  10    5.6104803811863e-09
  11    -2.1094673700783e-08
  12    0.00038301717222822
  13    -6.47629764981e-08
  14    -8.9084652803929e-09
  15    -1.8856292087389e-05
  16    -1.1416017630652e-09
  17    5.8411369567333e-06
  18    1.2560660911369e-05
  19    -2.4842408100956e-09
  20    0.0016384570934812
  21    3.1167655648702e-08
  22    -3.628614531088e-05
  23    -0.002713030007543
  24    1.2040752950422e-08
  25    -2.4168243992808e-09
  26    -0.00050573597532718
  27    -4.6207368081908e-09
  28    -5.882775734363e-09
  29    4.7193153789417e-05
  30    0.00052030970413439
  31    4.4788713220067e-09
  32      0.46682768408086
  33      0.60860434161715
  34     0.034416836530618
  35    -0.0077871530324949
  36      0.01040768387429
  37    0.0014941123491016
  38    -5.4188511875958e-08
  39    1.0758557810038e-07
  40    0.0059504487076084
  41    2.3583200307894e-07
  42    6.0954509074378e-07
  43    -0.0015842963841479
  44    2.1588588703681e-07
  45    -7.1698325969207e-08
  46    -0.00041570907709406
  47    -1.7390079267066e-07
  48    -0.00041151094951664
  49    0.0021360421846172
  50    -7.1247112718902e-08
  51    -0.00071075562907931
  52    -2.1433176570218e-07
  53    -0.00056353360478039
  54    0.0031701907463776
  55    -5.7041994622155e-08
  56    8.4185847958015e-08
  57    -0.0020503263453924
  58    9.3548211499818e-08
  59    1.7819671398674e-07
  60    0.00052787316058562
  61    0.0011638615553933
  62    4.3679521039988e-08
  63    -0.00067627121636409
  64    -0.0014002189542178
  65    -0.0027099827891683
  66    -0.0011326187196549
  67    0.0004761394830011
  68    -0.0017659938301194
  69    -0.00067653455003685
  70    -0.0014010718550241
  71    -0.0027097780861329
  72    -0.0011328573891651
  73    -0.00047584303328171
  74    0.0017663523611799
 Sym= A
 Ene=    -1.058701627
 Spin= Alpha
 Occup=    2.00000
   1    -0.091039558389319
   2     -0.21390372355271
   3      0.31505604610116
   4      0.39189777728774
   5      0.12672640101459
   6     -0.12098887052921
   7    1.032818304969e-07
   8    1.7472541671241e-07
   9    -0.087910490478095
  10    1.7900536604988e-07
  11    1.6969996408551e-07
  12    -0.010646023517268
  13    1.7933864973071e-07
  14    5.2618304936984e-08
  15    -0.0040028973441932
  16    -8.3776729058605e-10
  17    0.00035877473026566
  18     0.005698672775044
  19    2.9775259084768e-08
  20    -0.0087296534322397
  21    -4.0011072387077e-08
  22    0.0012683592803986
  23     0.010755767197741
  24    1.9009981536712e-08
  25    -1.3757660007207e-08
  26    0.0019858986641797
  27    -6.2439840816237e-09
  28    6.3759677540227e-09
  29    -0.00017163851194635
  30    -0.0020815525822606
  31    -5.4872924793159e-09
  32    -0.055254339359098
  33     -0.11576582894755
  34      0.18706213200311
  35      0.12967133306568
  36     0.010148103084772
  37      0.13727572913967
  38    3.6012540809799e-07
  39    9.8273187429694e-07
  40     0.050776457222733
  41    7.5895387585525e-07
  42    7.5807684084538e-09
  43    0.0036504719527205
  44    -1.4417399279634e-07
  45    1.4057422329963e-07
  46    -0.009225515577195
  47    -1.5550033612705e-07
  48    -0.00057353885868128
  49     0.017952618355385
  50    -2.194243847102e-07
  51    -0.0033682035393385
  52    1.6074111062056e-07
  53    -0.00088460376561988
  54    0.0088778356213087
  55    -5.106300472689e-07
  56    2.3985316556626e-07
  57    -0.0073178871746362
  58    3.7418495257057e-07
  59    1.9481085178631e-07
  60    0.0013933415623809
  61    0.0055326574410126
  62    4.3173489494226e-08
  63     0.014469511835042
  64      0.01059534188966
  65    0.0010345831536091
  66    0.0023931102254024
  67    -0.00018766061460178
  68    0.00069618109831538
  69     0.014470686761681
  70     0.010596955773806
  71    0.0010342095169531
  72    0.0023933949958922
  73    0.00018770186712439
  74    -0.00069660868986497
 Sym= A
 Ene=   -0.6481530442
 Spin= Alpha
 Occup=    2.00000
   1      0.04042158008456
   2     0.096039456914129
   3     -0.14730677078945
   4     -0.20910779838691
   5     -0.13088542920128
   6    -0.075473316006583
   7    3.5404370517769e-06
   8    5.2237122796224e-06
   9    -0.049406331563313
  10    2.9704612954465e-06
  11    3.9659234043274e-06
  12    -0.021378750779957
  13    7.9916735885194e-07
  14    1.0535816258501e-06
  15    -0.00059542269539597
  16    -2.6627552761817e-07
  17    -0.00016405170348951
  18    0.0015958080349267
  19    -1.6678931838238e-07
  20    -0.00036710604442848
  21    -5.4718729150749e-07
  22    -0.00098429355244515
  23    0.0040228072760993
  24    -5.5075790378916e-07
  25    -1.1182001375486e-07
  26    0.00024370303053225
  27    -2.2353030967242e-08
  28    9.9059207645472e-08
  29    6.4161671150825e-05
  30    -0.00049488621324152
  31    7.4722269862887e-08
  32    -0.080868294858702
  33     -0.17263202119452
  34      0.28649216327537
  35      0.32730210256024
  36     0.077782550737095
  37     -0.15667287023663
  38    1.083535291149e-05
  39    1.8894391425825e-05
  40     -0.09057757304744
  41    7.0764598800234e-06
  42    8.2514464736453e-06
  43    -0.034939777119664
  44    1.8724218883833e-06
  45    2.9284098349377e-06
  46    0.0091016287128502
  47    -1.3524096406251e-06
  48    -0.0046795028618049
  49    0.00033773695767658
  50    -6.0969105907695e-07
  51    -0.00018206471395931
  52    5.0115168386233e-07
  53    -0.00099707101956578
  54    0.0037462827078631
  55    -8.6471431172349e-07
  56    -1.5991585689662e-08
  57    -0.0046207420878224
  58    3.3628041539378e-07
  59    5.5469836283372e-07
  60    0.0020119434530204
  61    0.00031265323458946
  62    3.9062713706496e-07
  63      0.11249230062919
  64      0.13578401538748
  65      0.02187215627866
  66    0.0065217394338885
  67    -0.0041959161833887
  68     0.015564349501239
  69      0.11250985482399
  70      0.13580440197568
  71     0.021873787278688
  72    0.0065235840156112
  73    0.0041939979114686
  74    -0.015566555883209
 Sym= A
 Ene=   -0.5023470487
 Spin= Alpha
 Occup=    2.00000
   1    -3.527468855899e-06
   2    -8.3916028062949e-06
   3    1.2803108619086e-05
   4    1.8892940138165e-05
   5    1.5699789372274e-05
   6    2.397651407907e-05
   7     -0.05386651837914
   8      0.19987260368648
   9    1.7519898017979e-05
  10    -0.043318735681135
  11      0.16073484084427
  12    8.9592702695907e-06
  13    -0.019452810264743
  14      0.07218004513186
  15    2.9980610333778e-07
  16    -0.0065307255313307
  17    1.2974785817163e-08
  18    -5.8969607947516e-07
  19    0.0017600580971061
  20    6.7510461205483e-07
  21    -0.018358906254885
  22    2.6614786232993e-07
  23    -9.7982587016889e-07
  24    0.0049478050809222
  25    -0.0031719996656762
  26    -1.7829787823723e-07
  27    0.00088700201352123
  28    0.0031075860850317
  29    2.4699223035785e-08
  30    9.2722751090291e-08
  31    -0.00099546499581121
  32    3.6008365291577e-06
  33    7.8483610113125e-06
  34    -1.3445442948893e-05
  35    -1.9877295202058e-05
  36    -2.6435524643454e-06
  37    -1.0585858442657e-05
  38    -0.085392690510858
  39      0.31685091135437
  40    -3.3800798140724e-06
  41    -0.057261839978862
  42      0.21247098998605
  43    1.7628046604129e-06
  44    -0.019145651168943
  45     0.071040171318887
  46    1.2467336410952e-06
  47    -0.0041031317009174
  48    1.7340996357751e-06
  49    2.3935929427164e-08
  50    0.0011058143160222
  51    -2.6307047708347e-07
  52    0.0053830208634587
  53    4.9303683972101e-07
  54    2.5674883752947e-07
  55    -0.001450745934681
  56    -0.0018770204687919
  57    1.950126379411e-07
  58    -0.00035626800800732
  59    0.0034561549554907
  60    -1.6314147745364e-07
  61    -2.6145205905402e-07
  62    -0.0011724491774414
  63     -0.12332476918217
  64     -0.17170628871647
  65    -0.054161971338287
  66    -0.013216873802896
  67    0.0027829933683145
  68    -0.010319087913184
  69      0.12332331758887
  70      0.17170226955677
  71     0.054159700121833
  72     0.013216954239471
  73     0.002778987310814
  74    -0.010318725701282
 Sym= A
 Ene=   -0.4588865149
 Spin= Alpha
 Occup=    2.00000
   1    -0.037179226963199
   2    -0.088437447071185
   3      0.13320066366388
   4      0.20480747025096
   5      0.19684231420522
   6      0.39128033904948
   7    2.1843486306647e-05
   8    -9.3070416331852e-06
   9      0.28675966574669
  10    1.8127244412621e-05
  11    -7.5714042309003e-06
  12      0.15974848916573
  13    8.6270602416343e-06
  14    -3.6315508682398e-06
  15    0.0049295362483069
  16    2.5660401678708e-07
  17    0.00018440891344994
  18    -0.0091727648700816
  19    -6.4087378510286e-07
  20    0.0088552903469749
  21    8.6491764139623e-07
  22    0.00028871087417481
  23    -0.016331264091867
  24    -1.805292272011e-06
  25    1.1794544828048e-07
  26    -0.0027820883816456
  27    -1.8940398419411e-07
  28    -1.605499586564e-07
  29    0.00070141651150157
  30    0.0016209804866466
  31    3.7681292150156e-07
  32     0.014937393233386
  33     0.032935159796459
  34    -0.064607056417697
  35     -0.04989183906679
  36     0.069592181053549
  37     -0.27118256837089
  38    2.6162147833215e-05
  39    -9.5257274943946e-06
  40     -0.16371264764545
  41    1.9216283776263e-05
  42    -7.8811970418364e-06
  43    -0.023364135773233
  44    8.4472315600238e-06
  45    -3.1014620354374e-06
  46     0.011940864780684
  47    -2.8200912881005e-07
  48    -0.0022022039145763
  49    -0.013104381588956
  50    5.2367702538058e-07
  51    -0.0028059192580344
  52    -1.4408016075119e-07
  53    0.00040832138221597
  54    0.0034549486828476
  55    7.7759076259115e-07
  56    -1.788500308955e-07
  57    0.0042916395683208
  58    -2.3163981628137e-07
  59    -2.5665930978699e-08
  60    -0.00024249981031786
  61    -0.004859162630075
  62    6.793320278774e-07
  63     0.053375122884791
  64     0.076760011370617
  65     0.023949000785577
  66    -0.00077047516295762
  67    -0.0023088848357248
  68    0.0085664043891971
  69     0.053366390574764
  70     0.076746331617874
  71     0.023943953988302
  72    -0.0007716999259483
  73    0.0023082699844088
  74    -0.0085656160123221
 Sym= A
 Ene=   -0.4043343442
 Spin= Alpha
 Occup=    2.00000
   1    1.0828197720486e-06
   2    2.5680807812888e-06
   3    -3.7469520924934e-06
   4    -5.5925872858679e-06
   5    -8.7913214319983e-06
   6    -2.4059571588511e-05
   7      0.36291224235805
   8     0.097806432685368
   9    -1.7662601969531e-05
  10      0.29814882082413
  11      0.08035240399555
  12    -1.0857099764101e-05
  13      0.16912278071056
  14      0.04557931838612
  15    -2.9431863781002e-07
  16    -0.0022532763763876
  17    -9.7201259515835e-09
  18    5.6272463969301e-07
  19    -0.0083608137618694
  20    -4.3397133652494e-07
  21    -0.0069216014354506
  22    5.5418657765657e-08
  23    8.3053651637465e-07
  24     -0.02568271164088
  25    -0.0015939257559122
  26    1.574043924186e-07
  27    -0.0021696375738909
  28    0.00037563388821709
  29    -4.4735265044109e-08
  30    -1.2315311890014e-07
  31    0.0043183510002817
  32    2.8438727489802e-06
  33    6.0583624369791e-06
  34    -9.0580238422761e-06
  35    -1.9981708084071e-05
  36    -9.303116640139e-06
  37    2.5489579465558e-05
  38       0.2540459952709
  39     0.068466483771109
  40    1.8008136223812e-05
  41      0.21186456692827
  42     0.057098391225335
  43    4.8248552398329e-06
  44      0.10242220070318
  45     0.027603310308617
  46    -6.9055435548908e-07
  47    0.0044571088011575
  48    2.0790807074389e-07
  49    1.1934246453645e-06
  50      0.01653815890958
  51    -3.2157318691622e-08
  52    0.0064660216250476
  53    5.8539459715518e-07
  54    -8.789818195121e-07
  55     0.023992246529947
  56    -0.00059621553708574
  57    1.486563622377e-08
  58    -0.0011225579517673
  59    0.0022769706429676
  60    -3.1050137936693e-07
  61    6.0749079134908e-07
  62    0.0080076859204987
  63    -1.0947663227738e-06
  64    -1.6959992845893e-06
  65    -3.5704620046262e-06
  66    1.0503258331888e-06
  67    0.0087241269485229
  68    0.0023513517593958
  69    -1.10866398656e-06
  70    -1.6904828086732e-06
  71    -3.7405180445991e-06
  72    1.0502629540983e-06
  73    0.0087246652864575
  74    0.0023511686257844
 Sym= A
 Ene=   -0.2812170842
 Spin= Alpha
 Occup=    2.00000
   1    1.4635168771248e-07
   2    3.4601599497465e-07
   3    -4.7446003375225e-07
   4    -1.5708916213278e-06
   5    1.0894533723274e-06
   6    2.6644458000137e-06
   7     -0.11310521480795
   8      0.41967857534406
   9    2.0492455469672e-06
  10    -0.092250490996416
  11      0.34229685256469
  12     1.47637911253e-06
  13     -0.06983917586795
  14      0.25913915478643
  15    2.7103320552992e-08
  16    -0.0038018561396792
  17    -4.44269092066e-08
  18    -6.008236446685e-08
  19    0.0010246161886086
  20    3.2487494656694e-09
  21    -0.012438244357592
  22    -3.795093938948e-07
  23    -2.0065006021931e-07
  24    0.0033521616635727
  25    -0.0025877684792144
  26    1.868637764803e-08
  27    0.0013416207705214
  28    0.0014009647451999
  29    1.3009158741552e-07
  30    5.0668097444528e-08
  31    -0.00040295917622036
  32    1.084976539797e-07
  33    1.6782559380348e-07
  34    -8.8825180118926e-07
  35    3.8090322877658e-06
  36    1.1168375220995e-05
  37    -6.6709735930444e-07
  38      0.02762984247925
  39     -0.10252097349573
  40    -2.303444949897e-06
  41      0.02066389603397
  42    -0.076673845914365
  43    -4.5327136330632e-06
  44    -0.015005480335594
  45     0.055678367026733
  46    -6.767838583627e-07
  47      0.03163230983683
  48    -2.0805399133798e-06
  49    -9.3938079994331e-07
  50    -0.0085250474063034
  51    5.772348843916e-07
  52     0.040799398701164
  53    1.2060456762872e-07
  54    4.7808392065248e-07
  55    -0.010995613560065
  56    -0.0044870080629663
  57    2.8213409018099e-08
  58    0.00094080396359518
  59    0.0049720617983057
  60    9.6363841472656e-08
  61    -3.467554055236e-08
  62    -0.0016159949965672
  63      0.10168924948698
  64      0.17773294797462
  65      0.20810219228093
  66    0.0025986390544756
  67    -0.0015646247576759
  68    0.0058026974268413
  69     -0.10168547075001
  70     -0.17772572104259
  71     -0.20810068085242
  72    -0.0025987973822067
  73    -0.0015630433529718
  74     0.005802560681103
 Sym= A
 Ene=  -0.06551064643
 Spin= Alpha
 Occup=    0.00000
   1    -9.04511273902e-07
   2    -2.1650783192571e-06
   3    3.4019282237503e-06
   4    7.6738117776287e-06
   5    5.9026258643838e-06
   6    -1.018659670817e-05
   7      -0.3122225275701
   8    -0.084145330992022
   9    -8.4984105758826e-06
  10     -0.23935416948729
  11    -0.064507085292604
  12    -1.113323497424e-05
  13     -0.37310769321633
  14     -0.10055387635871
  15    -8.1565984365668e-08
  16    -0.00078181881308996
  17    7.3571848342978e-09
  18    1.0739131210242e-07
  19    -0.0029009543468725
  20    2.6094499467602e-07
  21    -0.0018288334864489
  22    -3.1872535136038e-07
  23    5.7271487779609e-07
  24    -0.0067859326448292
  25    0.00038069338315443
  26    1.906405293943e-08
  27    0.0004018647813796
  28    0.00070943285761264
  29    -6.1994069679494e-09
  30    -3.4296310891058e-08
  31    0.0013596984072958
  32    6.351766521224e-06
  33    1.3932445470411e-05
  34    -2.4411006143154e-05
  35    -4.2204484727998e-05
  36    -0.00014073680847484
  37    2.2399951022309e-05
  38      0.33634228164552
  39     0.090645721780737
  40    1.8576255538262e-05
  41      0.33543798476978
  42      0.09040204178588
  43    4.1833991721939e-05
  44      0.47181769360046
  45      0.12715620836546
  46    1.1364556252316e-06
  47    -0.0042984578334601
  48    -7.2379407959279e-07
  49    1.5557609027012e-06
  50    -0.015949487813483
  51    -4.545199020836e-07
  52    -0.013139533811851
  53    1.6311121029406e-06
  54    -2.4785154319077e-06
  55    -0.048754650576926
  56    0.0022466974692448
  57    -2.6265046477799e-08
  58     0.002946130193319
  59    0.00024043822000027
  60    -3.402920623366e-07
  61    5.2330939796058e-07
  62    -0.0037833050400286
  63    1.3535092297941e-05
  64    2.4872182131339e-05
  65    7.0392728717139e-05
  66    1.0492347413774e-06
  67     0.021665913911955
  68     0.005839766296609
  69    1.3540533212227e-05
  70    2.5169632211583e-05
  71    7.1013218240563e-05
  72    1.0613268687487e-06
  73     0.021667261182778
  74     0.005838700508635
 Sym= A
 Ene=   0.05115508069
 Spin= Alpha
 Occup=    0.00000
   1    0.00044709487724509
   2    0.00048877069704264
   3     0.011016171268388
   4    -0.079409389558271
   5     0.023971684145533
   6     0.052179880033657
   7    -2.0112619839608e-05
   8    4.5935846062205e-06
   9     0.081719969062554
  10    -1.1872805154624e-05
  11    4.3129252283886e-06
  12     0.037917459123372
  13    -5.3109148858921e-05
  14    4.2590698038276e-06
  15    -0.0010213170507206
  16    1.6682444480119e-07
  17    0.00076389680636099
  18    -0.00085960633746032
  19    -6.1519671031928e-07
  20    -0.0011432045210749
  21    5.1864694075332e-07
  22    0.00065289422670076
  23    -0.0002665203592365
  24    -9.1705932441772e-07
  25    6.866146339735e-08
  26    0.00036462137701001
  27    1.4320616187105e-08
  28    -3.9828886205322e-08
  29    -0.00023704852603331
  30    0.00019528128669086
  31    2.6534788711747e-07
  32    -0.049317206279235
  33     -0.10619238640393
  34      0.17674960564503
  35      0.45501288975652
  36       2.0923646429615
  37     -0.15334364171423
  38    3.8164664688955e-05
  39    -1.2941162757165e-05
  40    -0.051545023353571
  41    2.8589916328024e-05
  42    -1.9033820301361e-05
  43     -0.62726120923136
  44    0.00017260715959098
  45    3.2836112784911e-06
  46    -0.0092491189888896
  47     4.88010510161e-07
  48    0.0062682257011898
  49    -0.0055490880914609
  50    -1.5386285205552e-07
  51    -0.055450867176057
  52    1.7195474624265e-06
  53     0.023221248406824
  54     0.016139116575979
  55    3.008258564238e-06
  56    -1.0357538265637e-06
  57     0.005744126166759
  58    -1.6297314611279e-06
  59    -7.2967943506707e-07
  60    -0.0046443625386344
  61    0.0056330454559792
  62    -5.6298556136383e-07
  63    -0.046964778057153
  64      0.10747707530874
  65      -1.8059619705052
  66     0.018272603318334
  67    -0.0087964648460571
  68     0.032635621772066
  69    -0.046958149467165
  70      0.10748481125211
  71      -1.8059042422597
  72     0.018271861316152
  73    0.0087943572111177
  74    -0.032635386583401
 Sym= A
 Ene=    0.1043569802
 Spin= Alpha
 Occup=    0.00000
   1    -0.033091984987582
   2    -0.083710589360301
   3      0.18056761733673
   4    0.0092859327863183
   5       2.5225041189797
   6    -0.052820814140904
   7    1.9986360199946e-07
   8    7.6394149566467e-06
   9     -0.18510028102291
  10    3.0363647626754e-06
  11    6.5138251328649e-06
  12     -0.72869397438522
  13    -6.6403803503453e-06
  14    2.4482181611754e-05
  15     0.001565076482428
  16    4.7208439489917e-07
  17    0.00010833475397941
  18    -0.0030835794116434
  19    2.4589794138928e-08
  20     -0.03390341052976
  21    -4.9268744342572e-07
  22    0.00057083837947109
  23     0.056758200293697
  24    -7.3681407381472e-07
  25    -1.9057565328024e-08
  26    0.0025674401240435
  27    -2.7164557508278e-08
  28    -6.2319458051446e-08
  29    -5.0388353179403e-05
  30    -0.0031729824887426
  31    1.2060347981778e-07
  32    0.0096606147376139
  33     0.022845351418454
  34     0.018791391652068
  35     -0.56537711943082
  36      -1.7970337113786
  37    -0.031227545978252
  38    2.7797198652904e-06
  39    -2.0255476317962e-05
  40     -0.44968229699556
  41    1.7380969146461e-06
  42    -7.0453500049903e-06
  43      -1.7797442766649
  44    2.6778846360062e-05
  45    -9.3697320727739e-05
  46    -0.012239033828603
  47    -3.7506037467913e-07
  48    -1.7268885996858e-05
  49      0.02125807319219
  50    2.6917471215622e-07
  51     0.086334620959966
  52    -1.2597397739811e-05
  53    -0.010544605794875
  54     -0.11325203064548
  55    -2.6203111752789e-06
  56    1.4400580517083e-06
  57    0.0052129404522258
  58    9.9871364581702e-08
  59    1.0475564907741e-06
  60    0.0023270482545183
  61    -0.013267891914035
  62    -3.8569571137299e-07
  63     0.010582025860056
  64    -0.018289122912206
  65    -0.032139336566971
  66    -0.027192279712484
  67    -0.0016766826337705
  68    0.0062175728501944
  69     0.010585393680348
  70    -0.018336108131066
  71    -0.031841537977633
  72    -0.027198223075189
  73    0.0016733102847235
  74    -0.0062125673278879
 Sym= A
 Ene=    0.1084096974
 Spin= Alpha
 Occup=    0.00000
   1    2.551839397705e-06
   2    6.4912917231442e-06
   3    -1.5003418129043e-05
   4    6.2178457563232e-06
   5    -0.00019691894048729
   6    1.2799085851829e-06
   7    -0.022158397791895
   8     0.082218969230135
   9    7.726127635584e-06
  10     -0.01622595523066
  11     0.060206457409965
  12    5.5472454436889e-05
  13    -0.088568794284659
  14      0.32863616899869
  15    1.3163360757696e-07
  16    0.0064119945171251
  17    3.4529318692323e-07
  18    4.2574837184286e-07
  19    -0.0017280633655629
  20    2.1409768828353e-06
  21    -0.0036579803130343
  22    2.8007129260415e-07
  23    -4.5079923057997e-06
  24    0.00098583914327589
  25    0.00080928227471244
  26    -2.905991005171e-07
  27    0.00023278218504307
  28    -0.0016354502857273
  29    -2.3640221825011e-07
  30    2.275449535116e-07
  31    0.00055792537170567
  32    1.1900940314042e-06
  33    1.776374173644e-06
  34    -2.8652231349219e-06
  35    2.2880496094178e-05
  36    -6.8503160139982e-06
  37    6.2900132731052e-06
  38     0.076346994871894
  39     -0.28328618315681
  40    1.6689490152438e-05
  41     0.034576166359732
  42     -0.12829397608974
  43    0.00017340338676558
  44      0.34738867064081
  45      -1.2889931541286
  46    1.8069079067713e-06
  47    -0.0027334502895335
  48    1.7969816310531e-06
  49    -7.3813119163031e-07
  50    0.00073667825982229
  51    7.2169905055907e-06
  52     -0.16430395199786
  53    1.9517856213319e-05
  54    1.7027193359013e-05
  55     0.044280605311689
  56    0.0058348564217104
  57    -2.9445176437983e-06
  58    -0.010949376198501
  59     0.011385304107564
  60    -4.9505818125773e-06
  61    -1.8588401673454e-06
  62    -0.0043378928585384
  63    -0.010930732920602
  64      0.37672722432468
  65      -2.3010586691567
  66     0.034251102696393
  67    -0.014074073672703
  68     0.052194991611198
  69     0.010920946658725
  70     -0.37680771091772
  71       2.3013232294414
  72    -0.034253199350277
  73    -0.014061625083434
  74     0.052202970615206
 Sym= A
 Ene=    0.2023652107
 Spin= Alpha
 Occup=    0.00000
   1    0.0065076428000119
   2     0.015977432004814
   3    -0.037057779744398
   4      0.02994136103111
   5     -0.14719382747266
   6    -0.020944625109556
   7    -1.5604516290094e-05
   8    -9.2662231610717e-06
   9    -0.083446535454295
  10    -8.2704242679369e-06
  11    -4.3383129254007e-06
  12      0.17178646047525
  13    -4.0965379380549e-05
  14    -3.2808765690071e-05
  15    -0.00082637074836891
  16    -3.9479536695503e-07
  17    0.00015983099747003
  18    0.00088133632362272
  19    -1.0101112037156e-06
  20    -0.010867323566295
  21    -1.8573781973139e-06
  22     0.010062571120068
  23    -0.015802664560286
  24    -3.8245976007204e-06
  25    -2.1780723419993e-07
  26    0.00095414259079041
  27    -1.4804640487554e-07
  28    3.0586450418543e-07
  29    -0.0012568061921689
  30    0.0022992969743136
  31    4.3237846274459e-07
  32     0.013844656663487
  33     0.018670926884901
  34      0.20029073927363
  35      -1.5152397632149
  36       5.2725547922159
  37    0.0095664871683686
  38    5.014507871243e-05
  39     1.78550885137e-05
  40      0.15371997705745
  41    9.5327425965019e-05
  42    2.2648322785544e-05
  43      -1.6315018086705
  44    8.0166985276315e-05
  45    0.00016634340297691
  46    -0.024735995373728
  47    2.6585360305119e-06
  48     0.016373111836364
  49    -0.013496060856616
  50    3.0476376690021e-06
  51    -0.027815010391979
  52    2.3762526495486e-06
  53     0.026314566802185