11
step=0 target=0.00deg measured=0.00deg E=-6586.7110kcal/mol converged=True
C       -1.26882168      0.28670329     -0.00484817
C        0.00338455     -0.57132849      0.00034620
C        0.86766642     -0.30895389      1.22719708
H       -1.30621978      0.92146808      0.87714733
H       -1.31091375      0.92967864     -0.87980124
H       -2.16171391     -0.33278487     -0.00176049
H       -0.26262201     -1.62886889     -0.02427994
H        0.59265536     -0.36784985     -0.89498592
H        1.76214820     -0.92856609      1.20952838
H        0.31334286     -0.53224783      2.13605770
H        1.17234273      0.73473538      1.26142325
11
step=1 target=15.00deg measured=15.00deg E=-6587.0945kcal/mol converged=True
C       -1.26882168      0.28670329     -0.00484817
C        0.00338455     -0.57132849      0.00034620
C        0.67665247     -0.59132547      1.36683700
H       -1.30621978      0.92146808      0.87714733
H       -1.31091375      0.92967864     -0.87980124
H       -2.16171391     -0.33278487     -0.00176049
H       -0.23859534     -1.59484594     -0.28881707
H        0.71247138     -0.18923276     -0.73549480
H        1.57449008     -1.20597880      1.34639087
H        0.00051439     -0.99619757      2.11655581
H        0.95573267      0.41602776      1.66790192
11
step=2 target=30.00deg measured=30.00deg E=-6588.0672kcal/mol converged=True
C       -1.26433164      0.28799484     -0.00505585
C       -0.00014673     -0.57168575     -0.00030600
C        0.46635086     -0.89391421      1.41495602
H       -1.29552693      0.92252861      0.87815463
H       -1.30746965      0.91578038     -0.89068588
H       -2.15386508     -0.33939185      0.00966075
H       -0.18335651     -1.49942083     -0.54611968
H        0.80103883     -0.03774405     -0.51819168
H        1.36786709     -1.50167993      1.38948176
H       -0.30163316     -1.44237592      1.95761850
H        0.69001159      0.02030688      1.96130700
11
step=3 target=45.00deg measured=45.00deg E=-6588.9914kcal/mol converged=True
C       -1.26336858      0.28732713     -0.00489926
C       -0.00088046     -0.57111100     -0.00003339
C        0.26084387     -1.19623713      1.36564649
H       -1.29541935      0.92233209      0.87823008
H       -1.30724168      0.91578346     -0.89094989
H       -2.15363765     -0.33963527      0.00984774
H       -0.08673600     -1.35797047     -0.75273877
H        0.85853628      0.04871527     -0.26967655
H        1.16648503     -1.79840652      1.34228326
H       -0.56858326     -1.83631568      1.66070698
H        0.38698133     -0.42385316      2.12145169
11
step=4 target=60.00deg measured=60.00deg E=-6589.3616kcal/mol converged=True
C       -1.26187370      0.28402579     -0.00145287
C       -0.00091232     -0.56929683      0.00117858
C        0.07066836     -1.47549589      1.22346618
H       -1.29405745      0.91757650      0.88202452
H       -1.29612204      0.91727853     -0.88514045
H       -2.14712841     -0.34784396      0.00294089
H        0.02696525     -1.17834938     -0.90454293
H        0.87349782      0.08419371     -0.01232196
H        0.97797642     -2.07506777      1.20239593
H       -0.78277363     -2.14928301      1.25141062
H        0.06599231     -0.88499877      2.13686442
11
step=5 target=75.00deg measured=75.00deg E=-6588.9804kcal/mol converged=True
C       -1.26545058      0.28291738      0.00195290
C        0.00280921     -0.56916317      0.00102344
C       -0.09151760     -1.71767255      0.99967707
H       -1.30304599      0.91749470      0.88525190
H       -1.29455874      0.92767067     -0.87442211
H       -2.15155197     -0.34820689     -0.01007201
H        0.16541550     -0.98140354     -0.99886993
H        0.86440414      0.05770765      0.24349681
H        0.81940064     -2.31205465      0.98654750
H       -0.92987068     -2.36732037      0.75330931
H       -0.23682971     -1.33499294      2.00822909
11
step=6 target=90.00deg measured=90.00deg E=-6588.0395kcal/mol converged=True
C       -1.26593930      0.28322502      0.00210123
C        0.00314945     -0.56941377      0.00116365
C       -0.21631722     -1.90362491      0.70517926
H       -1.30348043      0.91733436      0.88482461
H       -1.29467353      0.92805816     -0.87374918
H       -2.15131590     -0.34778332     -0.01056972
H        0.31423730     -0.75986392     -1.02918927
H        0.81042133     -0.02333966      0.49349944
H        0.69569800     -2.49599488      0.69646054
H       -1.00007500     -2.47164065      0.20698949
H       -0.51217894     -1.74442914      1.74048750
11
step=7 target=105.00deg measured=105.00deg E=-6587.1070kcal/mol converged=True
C       -1.26829683      0.28607651      0.00265775
C        0.00370327     -0.57134951      0.00223701
C       -0.29097922     -2.02194542      0.36323565
H       -1.31229286      0.92277123      0.88191284
H       -1.30171097      0.93470880     -0.86910790
H       -2.15479915     -0.34143320     -0.01377821
H        0.46560569     -0.54602159     -0.98632721
H        0.72910125     -0.16165657      0.70587392
H        0.62076190     -2.61495072      0.35970969
H       -0.98579376     -2.45485306     -0.35261005
H       -0.73825683     -2.08242011      1.35298474
11
step=8 target=120.00deg measured=120.00deg E=-6586.6863kcal/mol converged=True
C       -1.26829683      0.28607651      0.00265775
C        0.00370327     -0.57134951      0.00223701
C       -0.31726336     -2.06075848     -0.00301860
H       -1.31229286      0.92277123      0.88191284
H       -1.30171097      0.93470880     -0.86910790
H       -2.15479915     -0.34143320     -0.01377821
H        0.60330970     -0.34178828     -0.88038881
H        0.61314006     -0.33376903      0.87476078
H        0.59460500     -2.65357736     -0.00180355
H       -0.89431103     -2.31887484     -0.88789332
H       -0.90201952     -2.32512932      0.87532416
11
step=9 target=135.00deg measured=135.00deg E=-6587.1218kcal/mol converged=True
C       -1.26365569      0.29545180     -0.00179574
C        0.00372833     -0.56983913     -0.00100816
C       -0.29110583     -2.01923050     -0.37379869
H       -1.30829457      0.93324878      0.87754139
H       -1.31487352      0.92129510     -0.88894248
H       -2.15137918     -0.33428894      0.01265899
H        0.73128125     -0.15494401     -0.70140841
H        0.46311583     -0.55741997      0.99083346
H        0.62216738     -2.61038601     -0.36534907
H       -0.72936515     -2.07674777     -1.36893030
H       -0.98496244     -2.46251325      0.33762628
11
step=10 target=150.00deg measured=150.00deg E=-6588.0810kcal/mol converged=True
C       -1.26096164      0.29282696     -0.00279135
C        0.00088091     -0.56849755     -0.00308731
C       -0.21069466     -1.89987113     -0.71329415
H       -1.30127851      0.93004866      0.87741578
H       -1.31187306      0.91700162     -0.89033162
H       -2.14754604     -0.33851865      0.01597349
H        0.81827953     -0.02537903     -0.47947666
H        0.30360981     -0.77192826      1.02613973
H        0.70270172     -2.49080076     -0.70120994
H       -0.49970322     -1.73940640     -1.74931827
H       -0.99583827     -2.47203995     -0.22441215
11
step=11 target=165.00deg measured=165.00deg E=-6588.9913kcal/mol converged=True
C       -1.26026594      0.29117374     -0.00298410
C        0.00060148     -0.56757905     -0.00265310
C       -0.08499696     -1.71352290     -1.00503105
H       -1.29870483      0.92826031      0.87878635
H       -1.30975098      0.91676611     -0.89194232
H       -2.14691749     -0.34099663      0.01528595
H        0.87042051      0.05333514     -0.22899450
H        0.15083072     -0.99059358      0.99445015
H        0.82688671     -2.30736863     -0.98553475
H       -0.22172699     -1.33032213     -2.01445950
H       -0.92336913     -2.36485874     -0.76877379
11
step=12 target=180.00deg measured=180.00deg E=-6589.3567kcal/mol converged=True
C       -1.26136926      0.28493496     -0.00184851
C       -0.00009976     -0.56793608     -0.00191989
C        0.07764363     -1.47016135     -1.22691814
H       -1.29281570      0.91877657      0.88133945
H       -1.29602577      0.91755982     -0.88549703
H       -2.14612637     -0.34836157      0.00165187
H        0.87928649      0.07927668      0.02889174
H        0.00905681     -1.18372116      0.89958189
H        0.98533675     -2.06844358     -1.20301432
H        0.08321764     -0.87838282     -2.13965512
H       -0.77657809     -2.14271982     -1.26149543
11
step=13 target=195.00deg measured=195.00deg E=-6588.9905kcal/mol converged=True
C       -1.26591255      0.28151368      0.00109440
C        0.00012216     -0.57239321      0.00038501
C        0.26907417     -1.19136964     -1.36676917
H       -1.30424827      0.91793361      0.88285742
H       -1.29000556      0.92906581     -0.87452270
H       -2.15575692     -0.34358627     -0.01698495
H        0.85726710      0.04540408      0.28035264
H       -0.09161908     -1.36260230      0.74919440
H        1.17280598     -1.79765440     -1.34320020
H        0.39633838     -0.41325016     -2.11671117
H       -0.56363955     -1.82397743     -1.66806501
11
step=14 target=210.00deg measured=210.00deg E=-6588.0657kcal/mol converged=True
C       -1.26702867      0.28174052      0.00139657
C        0.00098441     -0.57277442      0.00042468
C        0.47369271     -0.88807673     -1.41385055
H       -1.30456674      0.91765188      0.88257318
H       -1.28967476      0.92902142     -0.87388443
H       -2.15576492     -0.34309606     -0.01741754
H        0.79788184     -0.04281365      0.52698123
H       -0.18612352     -1.50291646      0.54079602
H        1.37359970     -1.49923511     -1.39072273
H        0.69616328      0.03081423     -1.95298542
H       -0.29637374     -1.42774051     -1.96139944
11
step=15 target=225.00deg measured=225.00deg E=-6587.1285kcal/mol converged=True
C       -1.27091988      0.28211005      0.00354970
C        0.00306180     -0.57357227      0.00025015
C        0.67942755     -0.58621888     -1.36520671
H       -1.31402808      0.92021850      0.88174474
H       -1.29183374      0.93129333     -0.86879420
H       -2.16399815     -0.33550903     -0.01982266
H        0.71073906     -0.18414906      0.73493715
H       -0.23682992     -1.59577179      0.29564863
H        1.57523992     -1.20254784     -1.34560751
H        0.96368426      0.42277503     -1.65496035
H        0.00532767     -0.98381432     -2.12096992
11
step=16 target=240.00deg measured=240.00deg E=-6586.6933kcal/mol converged=True
C       -1.27091988      0.28211005      0.00354970
C        0.00306180     -0.57357227      0.00025015
C        0.86958522     -0.30364798     -1.22383360
H       -1.31402808      0.92021850      0.88174474
H       -1.29183374      0.93129333     -0.86879420
H       -2.16399815     -0.33550903     -0.01982266
H        0.59125130     -0.36266807      0.89566908
H       -0.26138260     -1.63130774      0.03131445
H        1.76245598     -0.92434154     -1.20812901
H        1.17731063      0.73925500     -1.24588367
H        0.31778451     -0.51855332     -2.13652330
11
step=17 target=255.00deg measured=255.00deg E=-6587.1059kcal/mol converged=True
C       -1.26706717      0.28932257      0.00030338
C        0.00342201     -0.57125841      0.00213751
C        1.03554088     -0.05838010     -0.99559031
H       -1.31069986      0.92827767      0.87885383
H       -1.30575125      0.91544392     -0.88722892
H       -2.15980539     -0.33114185      0.01110297
H        0.43979668     -0.58793937      1.00234634
H       -0.24310376     -1.60283736     -0.26024831
H        1.92492647     -0.68397086     -0.98377932
H        1.32756914      0.96191726     -0.75373647
H        0.62658448     -0.06871674     -2.00321926
11
step=18 target=270.00deg measured=270.00deg E=-6588.0650kcal/mol converged=True
C       -1.26401457      0.28832519     -0.00096020
C        0.00215467     -0.56809730      0.00241204
C        1.16073515      0.12824652     -0.70187274
H       -1.30308983      0.92634697      0.87840211
H       -1.30450804      0.91148768     -0.88993812
H       -2.15360486     -0.33885904      0.01438040
H        0.28466087     -0.80797755      1.02855508
H       -0.19710217     -1.51151334     -0.51075738
H        2.04965761     -0.49870934     -0.69098502
H        1.39887018      1.06827290     -0.20822711
H        0.90220483      0.34057132     -1.73712158
11
step=19 target=285.00deg measured=285.00deg E=-6588.9817kcal/mol converged=True
C       -1.26321096      0.28767715     -0.00106788
C        0.00148586     -0.56749984      0.00230903
C        1.23882618      0.24551365     -0.36056916
H       -1.30276971      0.92632264      0.87885937
H       -1.30425655      0.91164088     -0.89024800
H       -2.15325376     -0.33929834      0.01429892
H        0.13657426     -1.02650955      0.98352876
H       -0.10568445     -1.37651220     -0.72462002
H        2.12705048     -0.38285521     -0.35545538
H        1.38760011      1.05401114      0.35225048
H        1.12989750      0.67859384     -1.35243036
11
step=20 target=300.00deg measured=300.00deg E=-6589.3589kcal/mol converged=True
C       -1.26223604      0.28470419     -0.00120483
C        0.00038410     -0.56697556      0.00033402
C        1.26235254      0.28694776      0.00427944
H       -1.29438653      0.91858470      0.88233201
H       -1.29500443      0.91788191     -0.88543782
H       -2.14681751     -0.34839050      0.00294847
H       -0.00243827     -1.21712530      0.87819370
H        0.00043185     -1.20450274     -0.88666666
H        2.14957957     -0.34200557      0.00352233
H        1.29435522      0.92132204      0.88787126
H        1.29354222      0.92540607     -0.87593372
11
step=21 target=315.00deg measured=315.00deg E=-6588.9893kcal/mol converged=True
C       -1.26611889      0.28249656      0.00029446
C        0.00266957     -0.56811166     -0.00160612
C        1.23722087      0.24609348      0.36653360
H       -1.30022719      0.91608042      0.88417151
H       -1.29445138      0.93168232     -0.87251123
H       -2.15453088     -0.34348302     -0.01346837
H       -0.10833986     -1.38504488      0.71530487
H        0.14076236     -1.01638919     -0.98732197
H        2.12658202     -0.38098247      0.36037129
H        1.12520765      0.67293152      1.36109187
H        1.38125977      1.06054268     -0.34031590
11
step=22 target=330.00deg measured=330.00deg E=-6588.0556kcal/mol converged=True
C       -1.26611889      0.28249656      0.00029446
C        0.00266957     -0.56811166     -0.00160612
C        1.15853640      0.12796518      0.70692948
H       -1.30022719      0.91608042      0.88417151
H       -1.29445138      0.93168232     -0.87251123
H       -2.15453088     -0.34348302     -0.01346837
H       -0.19790394     -1.51815812      0.49923950
H        0.28832339     -0.79618762     -1.03021748
H        2.04906995     -0.49734753      0.69430119
H        0.89774287      0.33278552      1.74323019
H        1.39037828      1.07289207      0.22002760
11
step=23 target=345.00deg measured=345.00deg E=-6587.1225kcal/mol converged=True
C       -1.27054136      0.28312751     -0.00114210
C        0.00430186     -0.57033616     -0.00271430
C        1.03406590     -0.06053931      0.99897585
H       -1.30630420      0.91643317      0.88218839
H       -1.30157664      0.93901867     -0.86853186
H       -2.16290983     -0.33592668     -0.01700430
H       -0.24383961     -1.60305831      0.25262274
H        0.44446656     -0.58196205     -1.00123448
H        1.92869375     -0.67912174      0.98025570
H        0.62457009     -0.08019335      2.00668465
H        1.32095165      0.96235798      0.76408953
