8
step=0 target=0.00deg measured=0.02deg E=-17.1736kcal/mol converged=True
C       -0.76378910     -0.00023976      0.00004728
C        0.76380174     -0.00024952     -0.00000844
H       -1.16777289      0.65522461      0.77969045
H       -1.16779474      0.34820612     -0.95685484
H       -1.16737171     -1.00254875      0.17695363
H        1.16775992      0.65509987      0.77991171
H        1.16779565      0.34834433     -0.95672197
H        1.16734012     -1.00263714      0.17688695
8
step=1 target=15.00deg measured=59.72deg E=-18.1978kcal/mol converged=True
C       -0.76222906     -0.00035249      0.00009501
C        0.76217511     -0.00003515     -0.00003558
H       -1.16249248      0.90392285      0.47209493
H       -1.16307099     -0.04182843     -1.01910350
H       -1.16205694     -0.86180572      0.54654483
H        1.16357276      0.04841403      1.01883451
H        1.16228425      0.85940348     -0.55005676
H        1.16194964     -0.90685899     -0.46811992
8
step=2 target=30.00deg measured=59.48deg E=-18.1975kcal/mol converged=True
C       -0.76203709      0.00006435      0.00025194
C        0.76212271      0.00014991      0.00000146
H       -1.16102552      0.99579876      0.22747951
H       -1.16260507     -0.30072555     -0.97466787
H       -1.16102256     -0.69551354      0.74676716
H        1.16125047      0.30999420      0.97257543
H        1.16195826      0.68658611     -0.75548483
H        1.16114874     -0.99664755     -0.21766258
8
step=3 target=45.00deg measured=59.56deg E=-18.1976kcal/mol converged=True
C       -0.76232702      0.00009398      0.00039819
C        0.76200744      0.00028422      0.00040140
H       -1.16291558      1.01539712      0.09922424
H       -1.16067285     -0.42160122     -0.92941099
H       -1.16279410     -0.59448368      0.82951859
H        1.16429613      0.42913716      0.92515965
H        1.16160111      0.58617802     -0.83542699
H        1.16158843     -1.01577726     -0.09178503
8
step=4 target=60.00deg measured=60.00deg E=-18.1978kcal/mol converged=False
C       -0.76232702      0.00009398      0.00039819
C        0.76200744      0.00028422      0.00040140
H       -1.16291558      1.01539712      0.09922424
H       -1.16067285     -0.42160122     -0.92941099
H       -1.16279410     -0.59448368      0.82951859
H        1.16429700      0.42208749      0.92839599
H        1.16160031      0.59252158     -0.83094461
H        1.16158836     -1.01504631     -0.09951481
8
step=5 target=75.00deg measured=75.00deg E=-18.0480kcal/mol converged=False
C       -0.76232702      0.00009398      0.00039819
C        0.76200744      0.00028422      0.00040140
H       -1.16291558      1.01539712      0.09922424
H       -1.16067285     -0.42160122     -0.92941099
H       -1.16279410     -0.59448368      0.82951859
H        1.16432861      0.16753415      1.00593309
H        1.16157559      0.78751168     -0.64934775
H        1.16158136     -0.95458763     -0.35891001
8
step=6 target=90.00deg measured=60.78deg E=-18.1959kcal/mol converged=True
C       -0.76180605     -0.00054620     -0.00013709
C        0.76232417      0.00044480     -0.00084130
H       -1.15991741      0.95846529      0.35245315
H       -1.16514840     -0.17465460     -1.00412978
H       -1.15926890     -0.78489514      0.65376548
H        1.15824262      0.16137434      1.00804993
H        1.16099948      0.79451440     -0.64253988
H        1.16330369     -0.95244574     -0.36447457
8
step=7 target=105.00deg measured=59.64deg E=-18.1971kcal/mol converged=True
C       -0.76201757      0.00099228      0.00078131
C        0.76225502     -0.00123199     -0.00007743
H       -1.16299342      0.74925541      0.69408144
H       -1.15946859      0.22899063     -0.99467788
H       -1.16317744     -0.97337427      0.30082719
H        1.16439992     -0.22192697      0.99481202
H        1.16119679      0.97154676     -0.30855903
H        1.15922471     -0.75490028     -0.68940329
8
step=8 target=120.00deg measured=119.95deg E=-17.1736kcal/mol converged=True
C       -0.76387270      0.00056849      0.00023975
C        0.76381744     -0.00085361      0.00003298
H       -1.16660372      0.74773087      0.69320365
H       -1.16662650      0.22823983     -0.99255798
H       -1.16851626     -0.97172400      0.29986528
H        1.16674938     -0.97364307      0.30088118
H        1.16846296      0.74636988      0.69185099
H        1.16673000      0.22464130     -0.99339831
8
step=9 target=135.00deg measured=179.10deg E=-18.1960kcal/mol converged=True
C       -0.76222990      0.00121388      0.00054874
C        0.76227023     -0.00121804     -0.00070565
H       -1.16116840      0.95563822      0.36267717
H       -1.16619406     -0.16047862     -1.00579227
H       -1.16249218     -0.78939292      0.64567389
H        1.15990791     -0.96155954     -0.34784142
H        1.16495450      0.17722925      1.00295210
H        1.16485824      0.77932844     -0.65604675
8
step=10 target=150.00deg measured=178.71deg E=-18.1951kcal/mol converged=True
C       -0.76201142      0.00080530      0.00082729
C        0.76219545     -0.00123018      0.00009343
H       -1.15810713      1.01667151      0.11598898
H       -1.16207049     -0.40499530     -0.93604325
H       -1.16456879     -0.60582562      0.82052479
H        1.16116340     -1.01815545     -0.09202217
H        1.16469301      0.42859199      0.92514168
H        1.15826110      0.58691351     -0.83623903
8
step=11 target=165.00deg measured=180.36deg E=-18.1975kcal/mol converged=True
C       -0.76237053      0.00173407      0.00041295
C        0.76191942     -0.00084760     -0.00090111
H       -1.16053638      1.02234051     -0.02069717
H       -1.16360872     -0.52752252     -0.87119106
H       -1.15946026     -0.48990485      0.89602695
H        1.15868294     -1.02233805      0.01379585
H        1.16248677      0.52082672      0.87571487
H        1.16399803      0.49452776     -0.89197998
8
step=12 target=180.00deg measured=180.00deg E=-18.1976kcal/mol converged=False
C       -0.76237053      0.00173407      0.00041295
C        0.76191942     -0.00084760     -0.00090111
H       -1.16053638      1.02234051     -0.02069717
H       -1.16360872     -0.52752252     -0.87119106
H       -1.15946026     -0.48990485      0.89602695
H        1.15868868     -1.02222305      0.02022644
H        1.16249326      0.52634098      0.87240678
H        1.16398583      0.48890654     -0.89508733
8
step=13 target=195.00deg measured=180.19deg E=-18.1949kcal/mol converged=True
C       -0.76215473      0.00132991      0.00131098
C        0.76186459     -0.00196728     -0.00047724
H       -1.15591375      1.01812059      0.11204407
H       -1.16042765     -0.40991060     -0.93314672
H       -1.16558053     -0.60034618      0.82327011
H        1.16059216     -1.01598330     -0.11425622
H        1.16521868      0.40717247      0.93294197
H        1.15711683      0.60389473     -0.82439713
8
step=14 target=210.00deg measured=179.05deg E=-18.1962kcal/mol converged=True
C       -0.76209607      0.00143772     -0.00018433
C        0.76211737     -0.00077460      0.00009093
H       -1.16218961      0.94927406      0.37665673
H       -1.16380621     -0.14651088     -1.00853705
H       -1.15994122     -0.79893583      0.63349965
H        1.15883171     -0.95588864     -0.36140775
H        1.16140089      0.16382323      1.00685290
H        1.16563965      0.78765232     -0.64524939
8
step=15 target=225.00deg measured=180.25deg E=-18.1975kcal/mol converged=True
C       -0.76201121      0.00113794      0.00148309
C        0.76214360     -0.00157009     -0.00110479
H       -1.15883096      0.73543892      0.71168966
H       -1.16127156      0.25055943     -0.98815785
H       -1.16499519     -0.97852795      0.28249705
H        1.16110892     -0.73214574     -0.71380511
H        1.16334384     -0.25284183      0.98702186
H        1.16019716      0.98102955     -0.27921970
8
step=16 target=240.00deg measured=239.96deg E=-17.1736kcal/mol converged=True
C       -0.76384264      0.00125671      0.00115877
C        0.76383281     -0.00152487     -0.00055863
H       -1.16463586      0.73425214      0.71008365
H       -1.16799971      0.24977662     -0.98608482
H       -1.16903314     -0.97663750      0.28090439
H        1.16657998      0.24434315     -0.98906083
H        1.16615903     -0.98063064      0.27961903
H        1.16897609      0.73097767      0.70661225
8
step=17 target=255.00deg measured=299.38deg E=-18.1977kcal/mol converged=True
C       -0.76212443      0.00129964      0.00173870
C        0.76213281     -0.00107462     -0.00126058
H       -1.16070931      0.94878310      0.38331407
H       -1.16410064     -0.14238393     -1.00811388
H       -1.16182919     -0.80120576      0.63281731
H        1.16261023      0.79466099     -0.64022260
H        1.15904443     -0.95361428     -0.37144079
H        1.16496823      0.15403484      1.00651471
8
step=18 target=270.00deg measured=299.50deg E=-18.1979kcal/mol converged=True
C       -0.76211538      0.00138349      0.00167951
C        0.76204679     -0.00113465     -0.00106063
H       -1.15843079      1.01507337      0.12891908
H       -1.16504758     -0.39471769     -0.93761169
H       -1.16161208     -0.61474472      0.81577438
H        1.16122026      0.60707730     -0.82109265
H        1.16098704     -1.01544178     -0.11937383
H        1.16313291      0.40341183      0.93555380
8
step=19 target=285.00deg measured=299.58deg E=-18.1966kcal/mol converged=True
C       -0.76221350      0.00200312      0.00181739
C        0.76201997     -0.00041468     -0.00090411
H       -1.16266673      1.02171383     -0.00102033
H       -1.16195322     -0.51222055     -0.87993285
H       -1.15943249     -0.50643402      0.88837584
H        1.16168707      0.49939276     -0.89052987
H        1.15653370     -1.02278367      0.00779034
H        1.16651270      0.51645823      0.87634782
8
step=20 target=300.00deg measured=300.00deg E=-18.1967kcal/mol converged=False
C       -0.76221350      0.00200312      0.00181739
C        0.76201997     -0.00041468     -0.00090411
H       -1.16266673      1.02171383     -0.00102033
H       -1.16195322     -0.51222055     -0.87993285
H       -1.15943249     -0.50643402      0.88837584
H        1.16170403      0.50591697     -0.88682520
H        1.15652022     -1.02282516      0.00027540
H        1.16650919      0.50998693      0.88013027
8
step=21 target=315.00deg measured=300.62deg E=-18.1959kcal/mol converged=True
C       -0.76158114      0.00067459      0.00206969
C        0.76246749     -0.00148297     -0.00170747
H       -1.15632846      1.01544433      0.12877106
H       -1.16628967     -0.39492729     -0.93630387
H       -1.16175586     -0.61336984      0.81651298
H        1.15800635      0.62239631     -0.81105774
H        1.16154406     -1.01313704     -0.13695832
H        1.16177595      0.38853979      0.94101747
8
step=22 target=330.00deg measured=299.38deg E=-18.1944kcal/mol converged=True
C       -0.76226530      0.00219289      0.00196626
C        0.76188292     -0.00081612     -0.00000416
H       -1.16370677      0.94600850      0.38889865
H       -1.16046195     -0.13443708     -1.01015852
H       -1.15989504     -0.80693104      0.62596973
H        1.16425610      0.79843338     -0.63323951
H        1.15436344     -0.95083229     -0.38143401
H        1.16677930      0.14412367      1.00821520
8
step=23 target=345.00deg measured=301.52deg E=-18.1958kcal/mol converged=True
C       -0.76216871     -0.00029471      0.00284150
C        0.76213781      0.00113892     -0.00197531
H       -1.15948363      0.73296225      0.71361262
H       -1.16348442      0.24894511     -0.98530647
H       -1.16210375     -0.98156154      0.28304774
H        1.16219718      0.98875831     -0.25748126
H        1.15916989     -0.71251046     -0.73252031
H        1.16383414     -0.27385214      0.97968202
