10
step=0 target=0.00deg measured=0.00deg E=-9689.5656kcal/mol converged=True
O       -1.50032991     -0.54956231     -0.07836870
C       -0.72719210      0.56583581      0.28202049
C        0.70839388      0.56786596     -0.32961720
O        0.98842093     -0.54504946     -1.13809696
H       -1.63197695     -0.56093586     -1.03296146
H       -1.24500787      1.49459577     -0.00059642
H       -0.65929182      0.52325212      1.37042860
H        1.44729528      0.52827506      0.47233350
H        0.85905486      1.49756697     -0.89955585
H        0.35831063     -0.58744549     -1.86599709
10
step=1 target=15.00deg measured=15.00deg E=-9694.2739kcal/mol converged=True
O       -1.59973365     -0.29727779     -0.40520670
C       -0.75498193      0.64513906      0.20426935
C        0.69013837      0.55470013     -0.34992649
O        0.74602976     -0.18863931     -1.54107454
H       -1.14606768     -1.15035019     -0.40804492
H       -1.19851033      1.61820898     -0.02317293
H       -0.74481946      0.52054160      1.29603496
H        1.33461224      0.01673302      0.34960758
H        1.10665972      1.56110542     -0.49014075
H        0.04541115      0.12111870     -2.13036068
10
step=2 target=30.00deg measured=30.00deg E=-9694.8515kcal/mol converged=True
O       -1.59689977     -0.29692824     -0.40332903
C       -0.74882818      0.64358659      0.20294983
C        0.68683159      0.55506064     -0.34841683
O        0.70789668      0.11930001     -1.68315849
H       -1.15080911     -1.15257419     -0.41285148
H       -1.18941253      1.61736646     -0.02887825
H       -0.73424855      0.52086444      1.29476600
H        1.25830427     -0.19569035      0.20483594
H        1.18788723      1.52668936     -0.23728745
H        0.05547844      0.62334247     -2.18460707
10
step=3 target=45.00deg measured=45.00deg E=-9695.2058kcal/mol converged=True
O       -1.59707829     -0.29741027     -0.40312497
C       -0.74710546      0.64278214      0.20188468
C        0.68452833      0.55527866     -0.34840257
O        0.70336886      0.45356521     -1.74912378
H       -1.15125441     -1.15226429     -0.41306449
H       -1.18892255      1.61789738     -0.02897020
H       -0.73361419      0.52068739      1.29519710
H        1.17304968     -0.35734744      0.00941559
H        1.27067023      1.42014203     -0.00346775
H        0.11294721      1.12185836     -2.11569757
10
step=4 target=60.00deg measured=60.00deg E=-9695.1334kcal/mol converged=True
O       -1.61683529     -0.29577846     -0.38999720
C       -0.74538361      0.63593813      0.19700589
C        0.68040311      0.55718333     -0.35326510
O        0.75204672      0.79382985     -1.73564415
H       -1.18144585     -1.15513636     -0.42253112
H       -1.17751377      1.61984547     -0.01300044
H       -0.70440779      0.49642853      1.28943537
H        1.08782293     -0.44806749     -0.20249190
H        1.30605902      1.27730847      0.19907100
H        0.22579313      1.57302547     -1.94808743
10
step=5 target=75.00deg measured=75.00deg E=-9694.4026kcal/mol converged=True
O       -1.62233466     -0.29689157     -0.38557292
C       -0.74623649      0.63268795      0.19578289
C        0.67888904      0.55977138     -0.35574270
O        0.81515479      1.11344738     -1.63806227
H       -1.18505127     -1.15461803     -0.42102976
H       -1.17670137      1.61708472     -0.00780800
H       -0.70963037      0.49285267      1.28765094
H        0.99312381     -0.48357173     -0.44614073
H        1.35736836      1.06201309      0.35133282
H        0.36373129      1.96430164     -1.65733059
10
step=6 target=90.00deg measured=90.00deg E=-9693.4245kcal/mol converged=True
O       -1.63628091     -0.30421470     -0.38439184
C       -0.75270817      0.62529419      0.18994003
C        0.67967164      0.56653132     -0.36506527
O        0.90837259      1.39792364     -1.47445491
H       -1.22863559     -1.17678085     -0.39050484
H       -1.19245591      1.60913444      0.00811210
H       -0.70587637      0.46659157      1.27964017
H        0.92042374     -0.44675901     -0.69567843
H        1.37456639      0.83505013      0.44678884
H        0.57442448      2.28211064     -1.28977437
10
step=7 target=105.00deg measured=105.00deg E=-9692.7218kcal/mol converged=True
O       -1.61990526     -0.32002173     -0.40094522
C       -0.75715385      0.62014628      0.18785410
C        0.68293443      0.57198295     -0.36889421
O        0.98580832      1.63276035     -1.23947798
H       -1.23471503     -1.19962699     -0.32311855
H       -1.20013396      1.59621680     -0.03110460
H       -0.74052335      0.48781647      1.28092730
H        0.81383950     -0.33678040     -0.96372239
H        1.40479284      0.54504847      0.46210885
H        0.80118078      2.46952623     -0.79919219
10
step=8 target=120.00deg measured=120.00deg E=-9692.6657kcal/mol converged=True
O       -1.61990526     -0.32002173     -0.40094522
C       -0.75715385      0.62014628      0.18785410
C        0.68293443      0.57198295     -0.36889421
O        1.09935350      1.77782586     -0.95833073
H       -1.23471503     -1.19962699     -0.32311855
H       -1.20013396      1.59621680     -0.03110460
H       -0.74052335      0.48781647      1.28092730
H        0.74099329     -0.17488853     -1.16615180
H        1.38286743      0.27771906      0.42852266
H        0.98418339      2.49744558     -0.32825188
10
step=9 target=135.00deg measured=135.00deg E=-9693.3772kcal/mol converged=True
O       -1.60492295     -0.32939017     -0.41238810
C       -0.75629347      0.61708733      0.18639521
C        0.68223296      0.57491550     -0.36737119
O        1.20428808      1.85009910     -0.64274857
H       -1.23369034     -1.20993034     -0.28558759
H       -1.19044291      1.58922503     -0.06592008
H       -0.75258732      0.50400778      1.28066802
H        0.66092341      0.06113161     -1.33315365
H        1.34284862      0.01947870      0.31472700
H        1.18257467      2.37989918      0.16228097
10
step=10 target=150.00deg measured=150.00deg E=-9694.2982kcal/mol converged=True
O       -1.60079724     -0.32808416     -0.41474385
C       -0.75431770      0.61887582      0.18571660
C        0.67986427      0.57382356     -0.36802357
O        1.31957255      1.82401668     -0.32831260
H       -1.23513480     -1.21008929     -0.28483377
H       -1.19083530      1.58938396     -0.06426193
H       -0.75218765      0.50375943      1.28112249
H        0.63265566      0.31223564     -1.42833751
H        1.27613945     -0.18839563      0.15795131
H        1.33833408      2.14372382      0.58050615
10
step=11 target=165.00deg measured=165.00deg E=-9694.9913kcal/mol converged=True
O       -1.59399140     -0.32702865     -0.42245129
C       -0.75406904      0.62183673      0.18229404
C        0.67724187      0.57568682     -0.37123797
O        1.42191010      1.71587997     -0.02927750
H       -1.23435346     -1.21088391     -0.28227653
H       -1.19037477      1.59527067     -0.05451534
H       -0.74368412      0.50144149      1.27883536
H        0.63090116      0.57029255     -1.46295757
H        1.18576973     -0.34515937     -0.03890107
H        1.46280852      1.79752466      0.93085032
10
step=12 target=180.00deg measured=180.00deg E=-9695.1830kcal/mol converged=True
O       -1.59678921     -0.32293166     -0.42795285
C       -0.75653210      0.62563820      0.17641029
C        0.67609727      0.58159787     -0.37558520
O        1.51647530      1.53010956      0.22867949
H       -1.23195904     -1.20343344     -0.28127925
H       -1.20337547      1.59991260     -0.03168405
H       -0.73003877      0.48339816      1.26909824
H        0.66947707      0.82033540     -1.44101394
H        1.08279744     -0.43529816     -0.25139323
H        1.54271280      1.36569986      1.17850683
10
step=13 target=195.00deg measured=195.00deg E=-9694.8097kcal/mol converged=True
O       -1.60021162     -0.32048860     -0.42939145
C       -0.75871818      0.62777759      0.17436523
C        0.67688894      0.58455580     -0.37771447
O        1.59066829      1.27603515      0.43389275
H       -1.23838991     -1.20308962     -0.28958853
H       -1.21500342      1.60021443     -0.01602862
H       -0.72537731      0.47445342      1.26736425
H        0.72618342      1.05891282     -1.35886570
H        0.98323461     -0.47006065     -0.49259729
H        1.58523382      0.89290817      1.31855653
10
step=14 target=210.00deg measured=210.00deg E=-9694.0940kcal/mol converged=True
O       -1.60095306     -0.32048752     -0.42925611
C       -0.75926920      0.62778629      0.17446300
C        0.67742101      0.58463443     -0.37786482
O        1.63579294      0.97121421      0.57303356
H       -1.23837637     -1.20314615     -0.28967429
H       -1.21536550      1.59991446     -0.01576542
H       -0.72527354      0.47434025      1.26672609
H        0.78839298      1.27448210     -1.21515475
H        0.88686006     -0.43469471     -0.74507304
H        1.57788761      0.38826951      1.33909719
10
step=15 target=225.00deg measured=225.00deg E=-9693.4828kcal/mol converged=True
O       -1.60650666     -0.32152770     -0.42866327
C       -0.76146996      0.62709888      0.17456064
C        0.67971658      0.58464937     -0.37765721
O        1.65503848      0.63914875      0.63408701
H       -1.23973326     -1.20291846     -0.29026963
H       -1.21962730      1.59781812     -0.01521863
H       -0.72525572      0.47511021      1.26417471
H        0.87163081      1.44178237     -1.02318402
H        0.79860581     -0.32868500     -0.98044654
H        1.52499847     -0.10256256      1.23697714
10
step=16 target=240.00deg measured=240.00deg E=-9693.3384kcal/mol converged=True
O       -1.61170105     -0.32120142     -0.42468501
C       -0.76106630      0.62603960      0.17508712
C        0.67953141      0.58344044     -0.37749839
O        1.64229950      0.30092256      0.60933020
H       -1.25119669     -1.20562582     -0.29428568
H       -1.23005093      1.59018120     -0.02432048
H       -0.72402662      0.48148783      1.26541998
H        0.97239633      1.55116769     -0.78617408
H        0.72333269     -0.15900506     -1.18863761
H        1.43987879     -0.54567318      1.02342625
10
step=17 target=255.00deg measured=255.00deg E=-9693.6466kcal/mol converged=True
O       -1.60968403     -0.32380626     -0.42462143
C       -0.75868001      0.62514530      0.17581157
C        0.67724624      0.58216382     -0.37783277
O        1.59206561     -0.02016801      0.50847203
H       -1.25428135     -1.21019589     -0.29153970
H       -1.21857560      1.59199446     -0.03497620
H       -0.72105911      0.48712095      1.26581214
H        1.05575857      1.59398375     -0.53169759
H        0.66665258      0.06273742     -1.34667206
H        1.31038281     -0.92124250      0.70449915
10
step=18 target=270.00deg measured=270.00deg E=-9694.1240kcal/mol converged=True
O       -1.60896036     -0.32437031     -0.42467130
C       -0.75679303      0.62563000      0.17582601
C        0.67536636      0.58267304     -0.37790980
O        1.51521720     -0.29980990      0.33283841
H       -1.25459415     -1.20986729     -0.29005688
H       -1.21662395      1.59190499     -0.03672981
H       -0.72119090      0.48690686      1.26578150
H        1.14827949      1.56121012     -0.28237595
H        0.63701906      0.31475325     -1.44339542
H        1.14910309     -1.19030131      0.30479162
10
step=19 target=285.00deg measured=285.00deg E=-9694.6719kcal/mol converged=True
O       -1.58623758     -0.32989444     -0.45190045
C       -0.75811069      0.62705058      0.16913487
C        0.67682266      0.58315084     -0.37114381
O        1.39332675     -0.52648440      0.12135429
H       -1.29433524     -1.20897568     -0.18364350
H       -1.20910316      1.59401887     -0.05909163
H       -0.74602573      0.48726864      1.25633172
H        1.22743218      1.46049322     -0.02819861
H        0.65707031      0.58087774     -1.46717607
H        1.01055428     -1.32925720     -0.25146530
10
step=20 target=300.00deg measured=300.00deg E=-9694.9388kcal/mol converged=True
O       -1.58712641     -0.33059460     -0.45514760
C       -0.76089187      0.62709357      0.16852353
C        0.67953751      0.58242750     -0.37065785
O        1.28157508     -0.67573096     -0.16237468
H       -1.29734062     -1.20789214     -0.17776698
H       -1.20122295      1.60080585     -0.05589609
H       -0.74883259      0.47908810      1.25714403
H        1.29158243      1.30587773      0.17191773
H        0.67856838      0.84004772     -1.43872984
H        0.83767811     -1.32128707     -0.72520642
10
step=21 target=315.00deg measured=315.00deg E=-9694.8251kcal/mol converged=True
O       -1.58811047     -0.32893553     -0.45459982
C       -0.76320564      0.62670502      0.16831122
C        0.68163371      0.58138835     -0.37090056
O        1.16363516     -0.73710714     -0.47567511
H       -1.29338453     -1.20437065     -0.17503911
H       -1.20300284      1.60043525     -0.04875340
H       -0.75788276      0.47398974      1.25384440
H        1.34603180      1.09719773      0.32279140
H        0.72869593      1.08150845     -1.34527124
H        0.67012803     -1.17983440     -1.17699434
10
step=22 target=330.00deg measured=330.00deg E=-9694.3461kcal/mol converged=True
O       -1.59443708     -0.32747019     -0.45216798
C       -0.76811156      0.62763891      0.17010585
C        0.68678911      0.58166238     -0.37213369
O        1.05230300     -0.71031772     -0.79575787
H       -1.28276687     -1.20192005     -0.18698432
H       -1.21306743      1.60177101     -0.04145144
H       -0.76878429      0.47082984      1.25727876
H        1.38734208      0.85392905      0.41955352
H        0.80120440      1.29313447     -1.20113996
H        0.51671344     -0.92765247     -1.56908348
10
step=23 target=345.00deg measured=345.00deg E=-9694.0075kcal/mol converged=True
O       -1.58895741     -0.32024976     -0.44774599
C       -0.76690115      0.63344715      0.17433274
C        0.68877105      0.58783028     -0.36878982
O        0.94190951     -0.58876208     -1.09256247
H       -1.20479418     -1.19305592     -0.29234541
H       -1.21787913      1.60261164     -0.03828051
H       -0.76453558      0.48256092      1.26071919
H        1.39925387      0.59034164      0.45769789
H        0.88113371      1.46785888     -0.99453466
H        0.31363302     -0.63002613     -1.82542613
