[Molden Format]
made by pyscf v[2.13.1]
[Atoms] (AU)
O   1   8    -1.16407129273208     0.00000000000000     0.00000000000000
O   2   8     1.16407129273208     0.00000000000000     0.00000000000000
[GTO]
1 0
 s    6 1.00
          27032.382631  0.00057227335211155
          4052.3871392  0.0044353233492995
           922.3272271   0.023020107706038
          261.24070989   0.092822490667928
          85.354641351    0.29378500009671
          31.035035245    0.67401604501641
 s    2 1.00
          12.260860728    0.63839937025506
          4.9987076005    0.39534587125718
 s    1 1.00
          1.1703108158                   1
 s    1 1.00
         0.46474740994                   1
 s    1 1.00
         0.18504536357                   1
 p    4 1.00
          63.274954801   0.012018332222616
          14.627049379   0.083005421790056
          4.4501223456    0.31991743925964
          1.5275799647    0.70715542916104
 p    1 1.00
         0.52935117943                   1
 p    1 1.00
          0.1747842127                   1
 d    1 1.00
                 2.314                   1
 d    1 1.00
                 0.645                   1
 f    1 1.00
                 1.428                   1

2 0
 s    6 1.00
          27032.382631  0.00057227335211155
          4052.3871392  0.0044353233492995
           922.3272271   0.023020107706038
          261.24070989   0.092822490667928
          85.354641351    0.29378500009671
          31.035035245    0.67401604501641
 s    2 1.00
          12.260860728    0.63839937025506
          4.9987076005    0.39534587125718
 s    1 1.00
          1.1703108158                   1
 s    1 1.00
         0.46474740994                   1
 s    1 1.00
         0.18504536357                   1
 p    4 1.00
          63.274954801   0.012018332222616
          14.627049379   0.083005421790056
          4.4501223456    0.31991743925964
          1.5275799647    0.70715542916104
 p    1 1.00
         0.52935117943                   1
 p    1 1.00
          0.1747842127                   1
 d    1 1.00
                 2.314                   1
 d    1 1.00
                 0.645                   1
 f    1 1.00
                 1.428                   1

[5d]
[7f]
[9g]

[MO]
 Sym= A
 Ene=    -19.29571823
 Spin= Alpha
 Occup=    1.00000
   1      0.30739316743219
   2      0.45249463147499
   3      0.02336942318545
   4    -0.011109479578017
   5    0.0031513895696842
   6    0.0014922211797358
   7    -7.4322801746203e-17
   8    -4.4007266483622e-17
   9    -0.00057498690904534
  10    -1.9523946856526e-16
  11    1.8555469814772e-16
  12    0.00031775614108561
  13    5.2449353585965e-17
  14    -1.7926088122324e-16
  15    -4.5245877925082e-05
  16    -1.8672334634058e-17
  17    -5.7261475117572e-17
  18    7.8368159399487e-05
  19    1.0541261999026e-16
  20    0.00019356364207312
  21    1.1622211228285e-16
  22    5.7554982946292e-17
  23    -0.00033526206256885
  24    -1.6766321473376e-16
  25    -3.6644192811003e-17
  26    0.00025204782442109
  27    1.5518148888342e-17
  28    4.7826453166172e-17
  29    7.3188178632373e-18
  30    -0.00032539234214356
  31    -5.4474375404282e-17
  32      0.30739310587032
  33       0.4524945409096
  34     0.023369417696677
  35    -0.011109474739469
  36    0.0031513874358706
  37    -0.0014922208038005
  38    8.3158546726467e-17
  39    2.1815597564601e-16
  40    0.00057498504337041
  41    -1.4021126204818e-16
  42    -4.6658258586845e-16
  43    -0.00031775548680477
  44    1.9795149787786e-16
  45    3.4294500945417e-16
  46    -4.5245882102002e-05
  47    -1.8618005322292e-17
  48    7.9754922859719e-18
  49    7.8368166633992e-05
  50    8.8863799362296e-17
  51    0.00019356324932308
  52    7.4419382738041e-17
  53    -1.3383545822775e-17
  54    -0.00033526138230568
  55    -2.1258688307184e-16
  56    3.5030973229158e-17
  57    -0.00025204774445754
  58    -1.4984014815983e-17
  59    -4.5081362087202e-17
  60    1.1388310029214e-17
  61    0.00032539223891111
  62    5.8960743435201e-17
 Sym= A
 Ene=    -19.29559157
 Spin= Alpha
 Occup=    1.00000
   1     -0.30743221338501
   2     -0.45227224206499
   3     -0.02741074868626
   4     0.024163665894164
   5    -0.010656343082359
   6    -0.0018775160454374
   7    -3.7395173627468e-17
   8    5.3325604245904e-18
   9     0.009317191376368
  10    -2.4614099392516e-16
  11    9.5586934006307e-18
  12    -0.0032675272321886
  13    2.7542777503632e-16
  14    -5.8865740795048e-17
  15    -2.0854852551994e-05
  16    8.6714870101173e-18
  17    -7.1430172515233e-17
  18    3.6121664204604e-05
  19    8.0957177615995e-17
  20    -0.001961402753811
  21    1.3922388831142e-18
  22    6.471655816177e-17
  23    0.0033972492237061
  24    -1.0195664504744e-16
  25    -3.7971492580882e-18
  26    -0.00039933276348385
  27    1.1559059319937e-17
  28    4.3259919707215e-18
  29    8.1163389856498e-18
  30    0.00051553638085599
  31    -5.0164720557722e-17
  32      0.30743227493901
  33      0.45227233267488
  34      0.02741075336596
  35    -0.024163668118829
  36     0.010656343713422
  37    -0.0018775163442691
  38    -3.7991399828399e-17
  39    7.9350690819778e-17
  40    0.0093171914915181
  41    1.3430193294112e-16
  42    -1.5611431566867e-16
  43    -0.0032675272958188
  44    -1.2925159786284e-16
  45    1.0981658218326e-16
  46    2.085484348459e-05
  47    5.5088370966754e-19
  48    9.0736521838344e-18
  49    -3.612164849922e-05
  50    6.0470601543462e-17
  51    0.0019614027925708
  52    -1.4208455053736e-17
  53    -1.5103601788123e-17
  54    -0.0033972492908399
  55    -1.3594251326074e-16
  56    6.0497739959494e-18
  57    -0.00039933281395564
  58    -1.2023918304865e-17
  59    -8.1655966852609e-18
  60    1.1635546208041e-17
  61    0.0005155364460148
  62    4.8676247389718e-17
 Sym= A
 Ene=    -1.294532946
 Spin= Alpha
 Occup=    1.00000
   1      -0.0724191178558
   2     -0.17066253129539
   3      0.25612144719966
   4      0.30945016791376
   5     0.070211393620287
   6      0.12327707455808
   7    1.0409866712955e-16
   8    -4.490184131711e-16
   9     0.085500053536971
  10    8.1428603521782e-16
  11    7.2535830430699e-16
  12    0.0058965220871322
  13    -8.6666080115847e-16
  14    -6.6319366216743e-16
  15    -0.0038868758080551
  16    -4.7961233123075e-17
  17    4.3209614345573e-18
  18    0.0067322663822618
  19    -1.7051080421366e-17
  20    -0.0077156558728875
  21    9.2636611083516e-17
  22    5.0405935513652e-17
  23     0.013363907985558
  24    -1.076273827615e-16
  25    -1.168876708174e-17
  26    -0.0036188632198331
  27    7.1239989029041e-17
  28    3.6114750533276e-17
  29    6.2142259180186e-18
  30    0.0046719323275387
  31    -2.5882644685517e-17
  32    -0.072419117853816
  33     -0.17066253129065
  34      0.25612144719111
  35       0.3094501679047
  36     0.070211393617178
  37     -0.12327707455803
  38    -8.054530793835e-18
  39    -3.6346199816719e-16
  40    -0.085500053537223
  41    -1.9362562858079e-16
  42    -2.2514525998228e-16
  43    -0.0058965220869888
  44    7.9153749095712e-16
  45    -8.0899672215695e-17
  46    -0.003886875808149
  47    -3.775669276114e-17
  48    -1.8080373181365e-17
  49    0.0067322663824246
  50    4.8999827623414e-17
  51    -0.0077156558730409
  52    3.0130082180937e-16
  53    -9.1042331295463e-17
  54     0.013363907985825
  55    -2.5097052034797e-16
  56    5.7301092337057e-17
  57    0.0036188632198543
  58    -2.304560633286e-17
  59    -5.5376860880028e-17
  60    3.1741101083565e-17
  61    -0.0046719323275664
  62    3.3470380829658e-17
 Sym= A
 Ene=   -0.8537301082
 Spin= Alpha
 Occup=    1.00000
   1     0.078577323513258
   2      0.18681526723173
   3     -0.28977123820811
   4     -0.39387572234216
   5     -0.20784227078912
   6     0.092433563158578
   7    -4.4103635397799e-16
   8    6.7532139541599e-17
   9     0.056626108081726
  10    -1.2746850320067e-15
  11    -1.11061232265e-16
  12     0.011969145450613
  13    3.7770977886223e-16
  14    5.027141424279e-16
  15    -0.0031361907183556
  16    2.6169999351927e-17
  17    -6.4165116608492e-17
  18    0.0054320416664178
  19    8.9654936094373e-17
  20    -0.0039694798299016
  21    -7.4426559288037e-17
  22    -1.3934363593067e-16
  23    0.0068753407450106
  24    -3.7446950098999e-16
  25    9.5901086958833e-18
  26    0.00031941484474145
  27    -3.4241248202916e-17
  28    -3.497429299902e-17
  29    2.3472452778997e-17
  30    -0.00041236279140519
  31    -1.4310445489243e-16
  32    -0.078577323513777
  33      -0.1868152672329
  34      0.28977123820823
  35      0.39387572234396
  36      0.20784227078852
  37     0.092433563144657
  38    -5.110712284678e-16
  39    -6.3896830961331e-16
  40     0.056626108071181
  41    6.4433168189016e-16
  42    -3.6960249378775e-16
  43     0.011969145447891
  44    -7.3364398726258e-16
  45    -6.0790218833085e-16
  46    0.0031361907180529
  47    2.1312451843096e-17
  48    -7.2802406350558e-17
  49    -0.0054320416658931
  50    8.4795595742252e-17
  51     0.003969479829313
  52    -9.9386222087571e-17
  53    -1.495618920013e-16
  54    -0.0068753407439899
  55    -4.3323915014463e-16
  56    -1.1607901974303e-17
  57    0.00031941484490317
  58    -4.3754903462812e-17
  59    3.156604668121e-17
  60    -1.3243513306786e-17
  61    -0.00041236279161375
  62    1.0569441695272e-16
 Sym= A
 Ene=   -0.5650497344
 Spin= Alpha
 Occup=    1.00000
   1    -6.5890811434431e-16
   2    -1.646679910134e-15
   3    3.3614673597608e-15
   4    2.9901768287121e-15
   5    6.9450963694929e-15
   6    -8.6300152214469e-15
   7      0.35121681261686
   8    -0.0040390512924081
   9    -8.3102222061643e-15
  10      0.28251538909532
  11    -0.0032489735868531
  12    -1.4670218305927e-15
  13      0.12845806974836
  14    -0.0014772889964212
  15    8.2078955207833e-18
  16    -9.8192315799779e-05
  17    3.2583396600455e-17
  18    -2.8316811091355e-16
  19    0.0085383397441408
  20    -1.093111299217e-15
  21    -0.00027150590999711
  22    2.3535951181972e-15
  23    -2.1221513118071e-15
  24      0.02360887084915
  25    3.1911979040994e-05
  26    7.3796363622076e-16
  27    -0.0011328537188597
  28    -4.1198179931344e-05
  29    3.5012501956926e-16
  30    1.583433006745e-16
  31    0.0043875252604514
  32    -8.3715135936912e-16
  33    -1.885198710744e-15
  34    1.2260872930027e-15
  35    1.2240888953855e-14
  36    -5.9483011597444e-15
  37    9.3882923586614e-15
  38      0.35121681259435
  39    -0.0040390512921556
  40    4.6057318920697e-15
  41      0.28251538907812
  42    -0.0032489735866632
  43    8.1527527374642e-15
  44      0.12845806973938
  45    -0.0014772889963219
  46    4.0550300355103e-16
  47    9.8192315800583e-05
  48    -6.7814634275378e-17
  49    -6.6535656159962e-17
  50    -0.0085383397442185
  51    -2.5216141129084e-15
  52    0.00027150591000183
  53    2.611843747181e-15
  54    -1.1648070170529e-15
  55    -0.023608870849511
  56    3.1911979041135e-05
  57    -1.0593030693045e-16
  58    -0.0011328537189063
  59    -4.1198179933962e-05
  60    -2.3845619586618e-16
  61    -1.7036488090934e-16
  62    0.0043875252606335
 Sym= A
 Ene=   -0.5650497344
 Spin= Alpha
 Occup=    1.00000
   1    -4.310150950978e-17
   2    -9.1769606229249e-17
   3    1.357245207769e-17
   4    1.2987424921868e-15
   5    -7.2110883906848e-15
   6    -4.7150826379718e-16
   7    0.0040390512924077
   8      0.35121681261687
   9    -8.6549986040742e-16
  10    0.0032489735868518
  11      0.28251538909532
  12    -3.8161582827742e-15
  13     0.001477288996421
  14      0.12845806974837
  15    -4.3513245694344e-17
  16    0.0085383397441426
  17    9.2781689960442e-17
  18    3.6508381663465e-18
  19    9.8192315799385e-05
  20    1.8553274938083e-15
  21     0.023608870849164
  22    -4.3120116199484e-15
  23    5.4120209222178e-16
  24    0.00027150590999737
  25    -0.002774914887532
  26    -3.6477380499153e-17
  27    -1.3028004676547e-05
  28    0.0035823990322656
  29    1.3407502815668e-16
  30    -6.5731989540007e-17
  31    5.0457264393797e-05
  32    -1.551592009212e-16
  33    -4.1999583096918e-16
  34    1.0380106938678e-15
  35    -9.4329041215184e-16
  36    8.2202629081134e-15
  37    6.9304504489253e-16
  38    0.0040390512921589
  39      0.35121681259434
  40    1.7073179645907e-16
  41    0.0032489735866626
  42      0.28251538907812
  43    -3.4064262669726e-15
  44    0.0014772889963244
  45      0.12845806973937
  46    7.0200140486166e-17
  47     -0.00853833974422
  48    -5.4620940744986e-17
  49    -2.4000107047803e-17
  50    -9.8192315800186e-05
  51    9.9253566793145e-16
  52    -0.023608870849515
  53    7.7690793035016e-15
  54    1.1286556797911e-15
  55    -0.00027150591000109
  56    -0.0027749148876468
  57    -4.5756437414258e-17
  58    -1.3028004677281e-05
  59    0.0035823990324143
  60    1.944536520379e-16
  61    -8.1517608788933e-17
  62    5.0457264395888e-05
 Sym= A
 Ene=   -0.5558988418
 Spin= Alpha
 Occup=    1.00000
   1     0.025664033718338
   2     0.061376352076025
   3     -0.10009050505689
   4     -0.11858703324575
   5     -0.16995493618959
   6      0.34811877245061
   7    9.1286723981853e-15
   8    6.381854875656e-16
   9      0.26631587098268
  10    5.8590791067869e-15
  11    -7.3819078185773e-16
  12      0.11014630423189
  13    2.9651564360304e-15
  14    3.0132520202287e-16
  15     -0.00608557602823
  16    4.8953915545311e-16
  17    -5.7771860626737e-17
  18     0.010540526874216
  19    1.7164999505747e-15
  20    -0.010431438772481
  21    -7.7304233272812e-16
  22    -1.5850868810761e-17
  23     0.018067781949983
  24    -8.1589381852489e-16
  25    3.4597193630757e-16
  26    -0.0026500443684395
  27    1.6508745534536e-16
  28    -4.5507369275055e-16
  29    2.4371981666369e-17
  30    0.0034211925685591
  31    -7.5377309679116e-16
  32     0.025664033721144
  33     0.061376352082722
  34     -0.10009050506713
  35     -0.11858703326054
  36     -0.16995493620186
  37     -0.34811877244684
  38    9.3851121345389e-15
  39    1.0823315415943e-15
  40     -0.26631587097946
  41    7.9815078811323e-15
  42    5.9982900767096e-16
  43     -0.11014630423014
  44    4.1850365501721e-15
  45    1.0708848453378e-15
  46    -0.0060855760284021
  47    -5.3432512850358e-17
  48    -2.2387299791422e-17
  49     0.010540526874516
  50    1.0124283407043e-16
  51     -0.01043143877281
  52    -3.9551190406859e-16
  53    1.4064173076737e-16
  54      0.01806778195055
  55    -1.7915403511368e-15
  56    -3.5111588404092e-16
  57     0.002650044368497
  58    -1.962332836374e-16
  59    4.3999789401221e-16
  60    4.4080821691884e-17
  61    -0.0034211925686332
  62    7.9895144022201e-16
 Sym= A
 Ene=   -0.3261120744
 Spin= Alpha
 Occup=    1.00000
   1    -2.0404591180682e-16
   2    -4.1599851832793e-16
   3    -4.1175897034001e-16
   4    6.7426003470644e-15
   5    -4.8901239358564e-15
   6    -3.805233191923e-16
   7     -0.36847250548476
   8     -0.16317219071816
   9    8.5008900624719e-16
  10     -0.30082690551292
  11     -0.13321641226644
  12    -2.8134344620882e-15
  13     -0.22907739386715
  14     -0.10144328177793
  15    2.4959636041753e-16
  16    0.00070262011548401
  17    4.2562869752925e-17
  18    2.1285250764743e-16
  19     0.001586644104102
  20    5.7770742616667e-15
  21    0.0030970802714776
  22    -1.0283239559026e-16
  23    3.8728558360613e-15
  24    0.0069937709501685
  25    -0.00079879519742241
  26    -1.4911775570301e-16
  27    -0.00073640910069073
  28    0.0010312405302372
  29    5.4565318075673e-17
  30    -6.2419659779551e-17
  31    0.0028520981657351
  32    -1.4778893913341e-16
  33    -3.1308822404893e-16
  34    -9.9872447269858e-17
  35    4.4574428032771e-15
  36    -2.8974398940497e-15
  37    1.706426392035e-16
  38       0.3684725054986
  39      0.16317219072428
  40    4.0100882783873e-16
  41      0.30082690552534
  42      0.13321641227194
  43    2.1919538893884e-15
  44      0.22907739387667
  45      0.10144328178214
  46    -6.9450289392162e-17
  47    0.00070262011525152
  48    -2.9917533559692e-17
  49    7.3331373675802e-17
  50    0.0015866441035778
  51    -6.449292911141e-15
  52    0.0030970802705071
  53    -4.3701900901588e-16
  54    -4.0469728078625e-15
  55    0.0069937709479777
  56    0.00079879519733779
  57    3.2506649388488e-17
  58    0.00073640910061341
  59    -0.0010312405301275
  60    9.2764635814242e-17
  61    1.6269854122469e-16
  62    -0.002852098165435
 Sym= A
 Ene=   -0.3261120744
 Spin= Alpha
 Occup=    1.00000
   1    5.345175810991e-17
   2    1.282973857886e-16
   3    -8.8610805299307e-17
   4    -1.3161135979573e-15
   5    6.9519307481934e-15
   6    1.8204048496017e-16
   7      0.16317219071816
   8     -0.36847250548477
   9    5.8262969908893e-16
  10      0.13321641226644
  11     -0.30082690551291
  12    3.1756182948178e-15
  13      0.10144328177793
  14     -0.22907739386717
  15    6.0670790970581e-17
  16    0.0015866441041042
  17    -1.8219023790993e-16
  18    -1.8126283205885e-17
  19    -0.00070262011548446
  20    -8.2724419849871e-16
  21    0.0069937709501615
  22    2.3978449166205e-15
  23    -2.2315433284265e-16
  24    -0.0030970802714778
  25    -0.0018038249438691
  26    -1.1429748624524e-17
  27    0.00032610706208974
  28    0.0023287288125596
  29    -1.1477952499966e-16
  30    1.7421542624413e-17
  31    -0.0012630063272537
  32    -7.7784292092032e-17
  33    -1.5758782099833e-16
  34    1.8423903514692e-16
  35    1.1968690994041e-15
  36    -6.3009560412772e-15
  37    4.5065083841525e-16
  38     -0.16317219072428
  39       0.3684725054986
  40    3.3834241942268e-16
  41     -0.13321641227194
  42      0.30082690552534
  43    4.0778958419177e-15
  44     -0.10144328178214
  45      0.22907739387668
  46    -5.006255724866e-17
  47    0.0015866441035753
  48    -1.3908054621759e-16
  49    2.5723330243108e-17
  50    -0.00070262011525099
  51    -3.774615495766e-16
  52    0.0069937709479678
  53    -3.6491041874142e-15
  54    -4.5988273320934e-16
  55    -0.0030970802705069
  56    0.0018038249436791
  57    -4.5904015580875e-17
  58    -0.00032610706205548
  59    -0.002328728812314
  60    3.7878153294287e-17
  61    -1.1730715802374e-17
  62    0.0012630063271204
 Sym= A
 Ene=    0.1354061093
 Spin= Alpha
 Occup=    0.00000
   1     0.042132486576562
   2      0.10234754880897
   3     -0.17385388460363
   4     -0.29637315891135
   5      -1.4136862475755
   6     -0.32949287682175
   7    -1.0258975693238e-16
   8    -3.8753162480028e-17
   9     -0.28274597655352
  10    -1.515205928595e-15
  11    -1.9974071726376e-15
  12      -1.1878396625339
  13    2.3921621955932e-15
  14    3.1412905217899e-15
  15    -0.0081892054644138
  16    -2.1656254888866e-17
  17    -3.6517169545523e-17
  18     0.014184119937986
  19    -6.8612742900818e-17
  20    -0.0058392802331396
  21    1.7607237883549e-16
  22    -1.4088510342945e-16
  23      0.01011393004343
  24    2.3922617708757e-17
  25    2.6009900305909e-18
  26    -0.0019551089193941
  27    -5.3917502556971e-17
  28    -2.0589957998497e-17
  29    -3.3494783163392e-17
  30    0.0025240347616115
  31    3.6327661973392e-17
  32    -0.042132486576227
  33     -0.10234754880815
  34      0.17385388460131
  35      0.29637315890603
  36       1.4136862475813
  37      -0.3294928768248
  38    -1.2244568938173e-16
  39    7.6650080358736e-17
  40     -0.28274597655866
  41    -6.2507771566918e-16
  42    9.8784458336738e-16
  43      -1.1878396625326
  44    3.7786704563906e-16
  45    -1.760436830894e-15
  46     0.008189205464183
  47    2.1426848925695e-17
  48    -4.5451225341171e-17
  49    -0.014184119937585
  50    1.5292798057553e-17
  51     0.005839280232263
  52    2.1432695284677e-16
  53    -1.479069131939e-16
  54    -0.010113930041912
  55    1.7316411167703e-16
  56    -4.238632839622e-17
  57    -0.0019551089193157
  58    -1.1865517159709e-17
  59    4.8074281292181e-17
  60    5.1630892616802e-17
  61      0.00252403476151
  62    1.1370718411885e-17
 Sym= A
 Ene=    0.3072483959
 Spin= Alpha
 Occup=    0.00000
   1    -0.039133406780467
   2    -0.082734318840041
   3    -0.036038654393815
   4       1.2719731050894
   5      -1.2538420728192
   6    -0.079723245122345
   7    5.7153791220664e-15
   8    -1.2566804445412e-16
   9     -0.12186263284939
  10    1.2403349820088e-14
  11    2.608148713847e-15
  12      0.13797099925358
  13    -2.574121918391e-14
  14    -4.7097577048414e-15
  15    -0.0023971151391998
  16    -3.3139559525677e-16
  17    -1.3774215129064e-16
  18    0.0041519252126796
  19    -8.3302419977547e-16
  20    -0.0047441244179959
  21    -2.7672554698697e-16
  22    1.2122553423908e-15
  23    0.0082170645294071
  24    -1.0974556175161e-15
  25    -6.0078906351502e-17
  26    0.0011295606616921
  27    -2.6322722886161e-16
  28    -3.4930832051083e-16
  29    -8.4984985024589e-16
  30    -0.0014582565437579
  31    1.0215135215184e-15
  32    -0.039133406780526
  33    -0.082734318840391
  34    -0.036038654390346
  35       1.2719731050704
  36      -1.2538420728185
  37      0.07972324510265
  38    -4.7614229318067e-16
  39    -1.5735635947709e-15
  40       0.1218626328255
  41    4.2724880781911e-15
  42    -1.6331630862999e-15
  43     -0.13797099921105
  44    -2.6279219263721e-15
  45    5.5057757171939e-15
  46    -0.0023971151391234
  47    3.9271057105253e-16
  48    -2.5406287596012e-16
  49    0.0041519252125498
  50    1.4114602299166e-15
  51    -0.0047441244153863
  52    4.0620647139212e-16
  53    1.3368852712639e-15
  54    0.0082170645248719
  55    3.8595051532395e-15
  56    3.1211992043218e-16
  57    -0.0011295606619747
  58    -3.024386716863e-16
  59    3.9577202989458e-17
  60    6.3018567214793e-16
  61    0.0014582565441224
  62    1.1405308367233e-15
 Sym= A
 Ene=    0.3586383988
 Spin= Alpha
 Occup=    0.00000
   1    5.2842318764497e-16
   2    1.1941185488935e-15
   3    7.5342256936852e-16
   4    -1.752201150737e-14
   5    -1.0039281630775e-14
   6    8.3831819642254e-15
   7      0.13780289271112
   8     -0.14662427466054
   9    1.3755370358787e-14
  10       0.3067273654175
  11     -0.32636236139946
  12    -3.8601805246139e-14
  13     -0.49752407158765
  14      0.52937282148072
  15    -1.0244564098065e-16
  16    -0.0029617833906183
  17    3.8497555221752e-17
  18    6.9825083406953e-17
  19    0.0027835930970906
  20    1.3307906189375e-15
  21    -0.022709820390084
  22    1.7466307316799e-16
  23    -1.4271908932619e-15
  24     0.021343525483409
  25    0.00060798168965312
  26    -1.622446393405e-17
  27    -0.00023327421176771
  28    -0.00078490055129477
  29    1.3900756375735e-16
  30    -1.3629494740998e-16
  31    0.00090346813865323
  32    4.0842810185635e-16
  33    1.0183156002665e-15
  34    -4.8279679718656e-16
  35    -1.160220875512e-14
  36    4.3489595320764e-14
  37    5.2500753937536e-15
  38      0.13780289270611
  39     -0.14662427465522
  40    5.8717814956824e-15
  41      0.30672736540736
  42     -0.32636236138871
  43    -2.2397389541604e-14
  44     -0.49752407154679
  45      0.52937282143735
  46    -9.7681027482793e-18
  47    0.0029617833903335
  48    -1.0261347278861e-16
  49    4.1515933552629e-17
  50    -0.0027835930968222
  51    -2.4947908712647e-16
  52     0.022709820390318
  53    -1.1724054184214e-16
  54    1.4975426019036e-15
  55     -0.02134352548363
  56    0.00060798168968383
  57    7.9341061754666e-17
  58    -0.00023327421177937
  59    -0.00078490055133447
  60    -6.2265406273522e-17
  61    -8.4450534334043e-18
  62    0.00090346813869873
 Sym= A
 Ene=    0.3586383988
 Spin= Alpha
 Occup=    0.00000
   1    -6.8844087895098e-16
   2    -1.1618083010783e-15
   3    -5.2421948567253e-15
   4    3.1440350273554e-14
   5    7.8330394065698e-14
   6    -2.4979560430416e-14
   7     -0.14662427466054
   8     -0.13780289271111
   9    -3.3727601037987e-14
  10     -0.32636236139948
  11     -0.30672736541747
  12    1.1234958150256e-13
  13      0.52937282148077
  14      0.49752407158756
  15    1.7708405343952e-16
  16    -0.0027835930970902
  17    -5.7966399703275e-17
  18    -2.0295937154451e-16
  19    -0.0029617833906187
  20    -3.669739709672e-15
  21    -0.021343525483408
  22    -1.2851857184787e-15
  23    7.715896645151e-15
  24    -0.022709820390083
  25    0.00057140358063868
  26    -4.4928757668377e-16
  27    0.00024820714155199
  28    -0.00073767844178248
  29    3.3682817733363e-17
  30    5.3784219882295e-16
  31    -0.00096130319112119
  32    -3.3791871918437e-16
  33    -8.6835883397603e-16
  34    3.2262232659709e-15
  35    9.0687987716661e-16
  36    -1.1119511773144e-13
  37    -2.3635978094087e-14
  38     -0.14662427465521
  39     -0.13780289270612
  40    -2.5905353518042e-14
  41     -0.32636236138869
  42     -0.30672736540739
  43    1.0104078475344e-13
  44       0.5293728214373
  45      0.49752407154688
  46    -8.9313544783934e-17
  47    0.0027835930968228
  48    7.5555561809914e-17
  49    1.3105877362561e-16
  50     0.002961783390333
  51      5.0081347702e-15
  52      0.02134352548363
  53    -1.6650389506782e-15
  54    -6.1085808005852e-15
  55     0.022709820390322
  56    0.00057140358066719
  57    -4.0155751121379e-16
  58    0.00024820714156462
  59    -0.00073767844181954
  60    1.0306456893061e-16
  61    5.707867032321e-16
  62    -0.00096130319116951
 Sym= A
 Ene=    0.3889562369
 Spin= Alpha
 Occup=    0.00000
   1    -0.0016908087154864
   2    0.00041736514516026
   3    -0.072706021022663
   4      0.25574184465283
   5       1.1259456426144
   6     -0.34950476615772
   7    1.6858870640558e-14
   8    8.9111781887772e-15
   9      -0.4221112872381
  10    2.8666810424861e-14
  11    1.6165316655022e-14
  12       1.3913095626484
  13    -5.4073580145558e-14
  14    -3.252203506381e-14
  15    0.0011822735990847
  16    2.6338211873675e-16
  17    1.2056366793055e-17
  18    -0.0020477579420623
  19    4.182604717377e-16
  20    -0.057531425473269
  21    7.5352264046831e-16
  22    2.6338025442339e-17
  23     0.099647351951566
  24    1.2067342594433e-15
  25    6.4667682162844e-18
  26    -0.0063844700273954
  27    9.2758352901877e-19
  28    -4.083329846957e-18
  29    -3.4877691294758e-17
  30    0.0082423153634878
  31    -2.942753033915e-17
  32    0.0016908087179543
  33    -0.00041736514009749
  34     0.072706021028527
  35     -0.25574184476552
  36      -1.1259456425474
  37      -0.3495047661488
  38    1.396453990599e-14
  39    7.1427334206866e-15
  40     -0.42211128720488
  41    2.495778146908e-14
  42    1.0821049814441e-14
  43       1.3913095625316
  44    -3.9307356861634e-14
  45    -1.5454585101635e-14
  46    -0.0011822735978518
  47    8.8495347261026e-17
  48    -5.6378126401227e-18
  49    0.0020477579399266
  50    4.3511224480465e-17
  51     0.057531425473214
  52    -1.7998547768145e-15
  53    -2.9235293331108e-17
  54     -0.09964735195147
  55    -3.7904213841383e-15
  56    -9.202690780084e-17
  57    -0.0063844700271092
  58    -9.504888749898e-17
  59    1.3163319983479e-16
  60    4.3508186258654e-17
  61     0.008242315363118
  62    3.6138162083467e-16
 Sym= A
 Ene=    0.4209774125
 Spin= Alpha
 Occup=    0.00000
   1    -0.0031100658821434
   2    -0.0053820571853236
   3    -0.033096645580319
   4       0.3890631348354
   5    -0.018439384167906
   6      0.12126579805912
   7    -7.70188686155e-15
   8    2.3704675500007e-15
   9       0.3819823906347
  10    -2.094841808435e-14
  11    6.9270838427683e-15
  12      -1.0870297192699
  13    6.2579654171118e-14
  14    -1.5381121628453e-14
  15     -0.01147377227435
  16    9.4174747015132e-16
  17    1.0268809826187e-16
  18     0.019873156533654
  19    1.4141385477795e-15
  20    -0.0026723830074555
  21    -5.9835592109235e-16
  22    1.7761100754684e-16
  23    0.0046287031461983
  24    -5.4598389598282e-16
  25    -8.87923597313e-17
  26    0.0014343965997616
  27    2.0795809900882e-16
  28    -2.0733138143797e-16
  29    2.8186025148547e-16
  30    -0.0018517980475776
  31    -8.8448962183311e-16
  32    -0.0031100658816568
  33    -0.0053820571847197
  34    -0.033096645572213
  35      0.38906313479679
  36    -0.018439384267206
  37     -0.12126579809676
  38    3.5950379312371e-15
  39    -2.2863743743213e-15
  40      -0.3819823906834
  41    1.5902588150535e-14
  42    -3.5108056072715e-15
  43       1.0870297194172
  44    -5.5115583732541e-14
  45    1.1584577245053e-14
  46    -0.011473772274457
  47    -9.3567871392682e-16
  48    1.1409364193886e-16
  49     0.019873156533834
  50    -5.2001938697177e-15
  51    -0.0026723830004156
  52    3.1333265776268e-16
  53    -8.7298263375272e-17
  54     0.004628703134002
  55    7.1970825812774e-15
  56    3.8366226566035e-16
  57    -0.0014343966004793
  58    1.5005977880602e-16
  59    -1.7848854096091e-16
  60    3.6169712302148e-16
  61    0.0018517980485047
  62    -5.7810731891396e-16
 Sym= A
 Ene=    0.4657536939
 Spin= Alpha
 Occup=    0.00000
   1    3.1003115346731e-16
   2    6.651381339707e-16
   3    2.9162313615721e-15
   4    -2.663952067654e-14
   5    4.5411799714205e-14
   6    -2.0044452608954e-15
   7    -0.060951632725686
   8      0.18638160864201
   9    -7.7137576812769e-15
  10     -0.13811992477865
  11      0.42235150421011
  12    3.7786315429987e-14
  13      0.43250281719278
  14      -1.3225334122446
  15    2.2083408496687e-16
  16    0.0089452611462909
  17    2.3994836321751e-16
  18    -4.7788656806104e-16
  19    -0.0029253330089633
  20    -2.3349230676616e-15
  21    -0.011205560490291
  22    5.9642100536918e-15
  23    -2.1789973955415e-15
  24    0.0036645096716696
  25    0.0013909584853089
  26    -2.1712167411542e-16
  27    -0.00018570397300924
  28    -0.0017957202856177