[Molden Format]
[Title]
[Atoms] AU
C      1     6  0.18752508225058E+01  0.13624547413288E+01 -0.32840605456716E+01
C      2     6  0.18752508225058E+01 -0.13624547413288E+01 -0.32840605456716E+01
C      3     6 -0.71628179027613E+00 -0.22044978051985E+01 -0.32840605456716E+01
C      4     6 -0.23179380644594E+01  0.00000000000000E+00 -0.32840605456716E+01
C      5     6 -0.71628179027613E+00  0.22044978051985E+01 -0.32840605456716E+01
H      6     1  0.35276840376577E+01  0.25630166455615E+01 -0.32695285517733E+01
H      7     1  0.35276840376577E+01 -0.25630166455615E+01 -0.32695285517733E+01
H      8     1 -0.13474503158994E+01 -0.41470417750020E+01 -0.32695285517733E+01
H      9     1 -0.43604485462554E+01  0.00000000000000E+00 -0.32695285517733E+01
H     10     1 -0.13474503158994E+01  0.41470417750020E+01 -0.32695285517733E+01
Fe    11    26 -0.00000000000000E+00 -0.00000000000000E+00 -0.00000000000000E+00
C     12     6 -0.18752508225058E+01 -0.13624547413288E+01  0.32840605456716E+01
C     13     6 -0.18752508225058E+01  0.13624547413288E+01  0.32840605456716E+01
C     14     6  0.71628179027613E+00  0.22044978051985E+01  0.32840605456716E+01
C     15     6  0.23179380644594E+01 -0.00000000000000E+00  0.32840605456716E+01
C     16     6  0.71628179027613E+00 -0.22044978051985E+01  0.32840605456716E+01
H     17     1 -0.35276840376577E+01 -0.25630166455615E+01  0.32695285517733E+01
H     18     1 -0.35276840376577E+01  0.25630166455615E+01  0.32695285517733E+01
H     19     1  0.13474503158994E+01  0.41470417750020E+01  0.32695285517733E+01
H     20     1  0.43604485462554E+01 -0.00000000000000E+00  0.32695285517733E+01
H     21     1  0.13474503158994E+01 -0.41470417750020E+01  0.32695285517733E+01
[GTO]
           1 0
 s           4   1.0000000000000000     
   51.049363095579913      -0.16312063210127389     
   8.7911227406887544      -0.19911024581000730     
  0.70640422258929825       0.31882047753655751     
  0.26922813413411617       0.12706504184240380     
 p           4   1.0000000000000000     
   5.8263656140800002       0.73716451545209605     
   1.5106896018720002       0.68216371614850257     
  0.53256483288000001       0.35783053929253711     
  0.21202323690600003        5.3983030275847881E-002

           2 0
 s           4   1.0000000000000000     
   51.049363095579913      -0.16312063210127389     
   8.7911227406887544      -0.19911024581000730     
  0.70640422258929825       0.31882047753655751     
  0.26922813413411617       0.12706504184240380     
 p           4   1.0000000000000000     
   5.8263656140800002       0.73716451545209605     
   1.5106896018720002       0.68216371614850257     
  0.53256483288000001       0.35783053929253711     
  0.21202323690600003        5.3983030275847881E-002

           3 0
 s           4   1.0000000000000000     
   51.049363095579913      -0.16312063210127389     
   8.7911227406887544      -0.19911024581000730     
  0.70640422258929825       0.31882047753655751     
  0.26922813413411617       0.12706504184240380     
 p           4   1.0000000000000000     
   5.8263656140800002       0.73716451545209605     
   1.5106896018720002       0.68216371614850257     
  0.53256483288000001       0.35783053929253711     
  0.21202323690600003        5.3983030275847881E-002

           4 0
 s           4   1.0000000000000000     
   51.049363095579913      -0.16312063210127389     
   8.7911227406887544      -0.19911024581000730     
  0.70640422258929825       0.31882047753655751     
  0.26922813413411617       0.12706504184240380     
 p           4   1.0000000000000000     
   5.8263656140800002       0.73716451545209605     
   1.5106896018720002       0.68216371614850257     
  0.53256483288000001       0.35783053929253711     
  0.21202323690600003        5.3983030275847881E-002

           5 0
 s           4   1.0000000000000000     
   51.049363095579913      -0.16312063210127389     
   8.7911227406887544      -0.19911024581000730     
  0.70640422258929825       0.31882047753655751     
  0.26922813413411617       0.12706504184240380     
 p           4   1.0000000000000000     
   5.8263656140800002       0.73716451545209605     
   1.5106896018720002       0.68216371614850257     
  0.53256483288000001       0.35783053929253711     
  0.21202323690600003        5.3983030275847881E-002

           6 0
 s           3   1.0000000000000000     
   3.3702276975336001       0.27359110588908298     
  0.61389118221497996       0.26460540653860526     
  0.16614291148415999        8.2465947534082318E-002

           7 0
 s           3   1.0000000000000000     
   3.3702276975336001       0.27359110588908298     
  0.61389118221497996       0.26460540653860526     
  0.16614291148415999        8.2465947534082318E-002

           8 0
 s           3   1.0000000000000000     
   3.3702276975336001       0.27359110588908298     
  0.61389118221497996       0.26460540653860526     
  0.16614291148415999        8.2465947534082318E-002

           9 0
 s           3   1.0000000000000000     
   3.3702276975336001       0.27359110588908298     
  0.61389118221497996       0.26460540653860526     
  0.16614291148415999        8.2465947534082318E-002

          10 0
 s           3   1.0000000000000000     
   3.3702276975336001       0.27359110588908298     
  0.61389118221497996       0.26460540653860526     
  0.16614291148415999        8.2465947534082318E-002

          11 0
 d           3   1.0000000000000000     
   1.9097284056068595       0.86123337497982078     
  0.59879816752509318       0.39233450236476580     
  0.23324664383551713        5.2271843589666030E-002
 s           4   1.0000000000000000     
  0.33890443730507491       -3.5477315373264193E-002
  0.17385400358364450       -5.4600427324903063E-002
   5.3112073797143146E-002   7.0254894937927317E-002
   2.9571878021481552E-002   1.7878941350210724E-002
 p           4   1.0000000000000000     
   2.5010806535903765       -2.7057806256651110E-002
  0.72515527904784138       -5.7357803326340752E-002
  0.12656406788646482        6.9420869019116579E-002
   6.2103957630462676E-002   1.8197741520476433E-002

          12 0
 s           4   1.0000000000000000     
   51.049363095579913      -0.16312063210127389     
   8.7911227406887544      -0.19911024581000730     
  0.70640422258929825       0.31882047753655751     
  0.26922813413411617       0.12706504184240380     
 p           4   1.0000000000000000     
   5.8263656140800002       0.73716451545209605     
   1.5106896018720002       0.68216371614850257     
  0.53256483288000001       0.35783053929253711     
  0.21202323690600003        5.3983030275847881E-002

          13 0
 s           4   1.0000000000000000     
   51.049363095579913      -0.16312063210127389     
   8.7911227406887544      -0.19911024581000730     
  0.70640422258929825       0.31882047753655751     
  0.26922813413411617       0.12706504184240380     
 p           4   1.0000000000000000     
   5.8263656140800002       0.73716451545209605     
   1.5106896018720002       0.68216371614850257     
  0.53256483288000001       0.35783053929253711     
  0.21202323690600003        5.3983030275847881E-002

          14 0
 s           4   1.0000000000000000     
   51.049363095579913      -0.16312063210127389     
   8.7911227406887544      -0.19911024581000730     
  0.70640422258929825       0.31882047753655751     
  0.26922813413411617       0.12706504184240380     
 p           4   1.0000000000000000     
   5.8263656140800002       0.73716451545209605     
   1.5106896018720002       0.68216371614850257     
  0.53256483288000001       0.35783053929253711     
  0.21202323690600003        5.3983030275847881E-002

          15 0
 s           4   1.0000000000000000     
   51.049363095579913      -0.16312063210127389     
   8.7911227406887544      -0.19911024581000730     
  0.70640422258929825       0.31882047753655751     
  0.26922813413411617       0.12706504184240380     
 p           4   1.0000000000000000     
   5.8263656140800002       0.73716451545209605     
   1.5106896018720002       0.68216371614850257     
  0.53256483288000001       0.35783053929253711     
  0.21202323690600003        5.3983030275847881E-002

          16 0
 s           4   1.0000000000000000     
   51.049363095579913      -0.16312063210127389     
   8.7911227406887544      -0.19911024581000730     
  0.70640422258929825       0.31882047753655751     
  0.26922813413411617       0.12706504184240380     
 p           4   1.0000000000000000     
   5.8263656140800002       0.73716451545209605     
   1.5106896018720002       0.68216371614850257     
  0.53256483288000001       0.35783053929253711     
  0.21202323690600003        5.3983030275847881E-002

          17 0
 s           3   1.0000000000000000     
   3.3702276975336001       0.27359110588908298     
  0.61389118221497996       0.26460540653860526     
  0.16614291148415999        8.2465947534082318E-002

          18 0
 s           3   1.0000000000000000     
   3.3702276975336001       0.27359110588908298     
  0.61389118221497996       0.26460540653860526     
  0.16614291148415999        8.2465947534082318E-002

          19 0
 s           3   1.0000000000000000     
   3.3702276975336001       0.27359110588908298     
  0.61389118221497996       0.26460540653860526     
  0.16614291148415999        8.2465947534082318E-002

          20 0
 s           3   1.0000000000000000     
   3.3702276975336001       0.27359110588908298     
  0.61389118221497996       0.26460540653860526     
  0.16614291148415999        8.2465947534082318E-002

          21 0
 s           3   1.0000000000000000     
   3.3702276975336001       0.27359110588908298     
  0.61389118221497996       0.26460540653860526     
  0.16614291148415999        8.2465947534082318E-002

[MO]
Sym=     1a
Ene=  -0.65866051022379613     
Spin= Alpha
Occup=     2.00000000
           1  0.17687530418334538     
           2  -5.0781853373226139E-002
           3  -3.6894704371968484E-002
           4  -5.5832093344266986E-003
           5  0.17687530418335981     
           6  -5.0781853373238220E-002
           7   3.6894704371968089E-002
           8  -5.5832093344270230E-003
           9  0.17687575665826191     
          10   1.9396981473206971E-002
          11   5.9697325651425742E-002
          12  -5.5832043780518958E-003
          13  0.17687534654256773     
          14   6.2769407697154903E-002
          15  -6.5256131248791672E-015
          16  -5.5832285883609823E-003
          17  0.17687575665821442     
          18   1.9396981473199754E-002
          19  -5.9697325651406390E-002
          20  -5.5832043780517406E-003
          21   2.6233491919379862E-002
          22   2.6233491919376885E-002
          23   2.6233923078651668E-002
          24   2.6233795302264929E-002
          25   2.6233923078650415E-002
          26   7.8569395465072800E-015
          27   8.2904050311408805E-015
          28  -1.6147344577648160E-014
          29  -2.6432739013071674E-016
          30   9.8561416209115262E-015
          31   3.0653237491748921E-015
          32  -2.7828377024584625E-014
          33  -1.8959754061869145E-007
          34   9.1796348205699342E-015
          35 -0.19393496310101205     
          36 -0.17687530418313435     
          37  -5.0781853373186643E-002
          38  -3.6894704371920037E-002
          39  -5.5832093344338430E-003
          40 -0.17687530418320377     
          41  -5.0781853373219728E-002
          42   3.6894704371909351E-002
          43  -5.5832093344331144E-003
          44 -0.17687575665823957     
          45   1.9396981473170767E-002
          46   5.9697325651412385E-002
          47  -5.5832043780566706E-003
          48 -0.17687534654257403     
          49   6.2769407697135987E-002
          50  -1.6095518254604016E-014
          51  -5.5832285883659957E-003
          52 -0.17687575665813898     
          53   1.9396981473150148E-002
          54  -5.9697325651386454E-002
          55  -5.5832043780571364E-003
          56  -2.6233491919330307E-002
          57  -2.6233491919340671E-002
          58  -2.6233923078646779E-002
          59  -2.6233795302267455E-002
          60  -2.6233923078632693E-002
Sym=     2a
Ene=  -0.63717807536871751     
Spin= Alpha
Occup=     2.00000000
           1  0.22253007383164164     
           2  -7.2298962114307266E-002
           3  -5.2527661273894931E-002
           4   1.4832340926291751E-002
           5  0.22253007383172338     
           6  -7.2298962114346402E-002
           7   5.2527661273857662E-002
           8   1.4832340926293963E-002
           9  0.22253043947095938     
          10   2.7615930502530341E-002
          11   8.4992054353512703E-002
          12   1.4832340632153910E-002
          13  0.22252974274594658     
          14   8.9365889681519428E-002
          15  -3.5960129873302294E-014
          16   1.4832319412121863E-002
          17  0.22253043947079804     
          18   2.7615930502507834E-002
          19  -8.4992054353499255E-002
          20   1.4832340632149364E-002
          21   5.4148086630491150E-002
          22   5.4148086630517824E-002
          23   5.4148511243842075E-002
          24   5.4148372014524361E-002
          25   5.4148511243790429E-002
          26   3.4889421610804106E-002
          27   3.4889140849517719E-002
          28  -6.9778562460321825E-002
          29   2.2599972905945442E-017
          30   4.5149618573110051E-008
          31  -3.5551147664730120E-014
          32 -0.12398849221925301     
          33   4.0724221656407991E-014
          34   1.3343889468255803E-014
          35   4.2559834945690867E-014
          36  0.22253007383150583     
          37   7.2298962114322934E-002
          38   5.2527661273869909E-002
          39  -1.4832340926285409E-002
          40  0.22253007383167786     
          41   7.2298962114394530E-002
          42  -5.2527661273805877E-002
          43  -1.4832340926289713E-002
          44  0.22253043947115322     
          45  -2.7615930502484273E-002
          46  -8.4992054353567506E-002
          47  -1.4832340632154040E-002
          48  0.22252974274619977     
          49  -8.9365889681565364E-002
          50   5.6713956722679003E-014
          51  -1.4832319412122942E-002
          52  0.22253043947088919     
          53  -2.7615930502438955E-002
          54   8.4992054353548938E-002
          55  -1.4832340632147915E-002
          56   5.4148086630445423E-002
          57   5.4148086630499241E-002
          58   5.4148511243888968E-002
          59   5.4148372014587241E-002
          60   5.4148511243807713E-002
Sym=     3a
Ene=  -0.59767352240088556     
Spin= Alpha
Occup=     2.00000000
           1  0.15778878772929991     
           2  -5.5752196398804015E-002
           3   8.2762820595567763E-002
           4   3.3775674928992732E-003
           5 -0.15778878746651051     
           6   5.5752196455143378E-002
           7   8.2762820663047798E-002
           8  -3.3775674872771975E-003
           9 -0.25530777084746192     
          10  -3.4456786625762729E-002
          11   1.7222650073070236E-002
          12  -5.4650311052155112E-003
          13  -1.6240271209796785E-010
          14   3.6346533636800701E-012
          15  0.12326870028788128     
          16  -3.4778815688533738E-012
          17  0.25530777074700756     
          18   3.4456786761356113E-002
          19   1.7222650114748699E-002
          20   5.4650311030637628E-003
          21   6.0953851194122194E-002
          22  -6.0953851092600764E-002
          23  -9.8626358254856925E-002
          24  -6.2733389119716659E-011
          25   9.8626358216049703E-002
          26  -2.5186545870842356E-015
          27  -3.7719414958228727E-015
          28   6.2905960829071079E-015
          29  -4.1939115740850192E-015
          30   2.5584430939087530E-015
          31   7.9649094044446392E-015
          32   8.4052772532001978E-015
          33   8.4103848596535216E-011
          34  0.13902570429242370     
          35  -5.6971976641238467E-014
          36 -0.15778878772916502     
          37  -5.5752196398798637E-002
          38   8.2762820595460501E-002
          39   3.3775674928986565E-003
          40  0.15778878746635183     
          41   5.5752196455106019E-002
          42   8.2762820662991524E-002
          43  -3.3775674872738777E-003
          44  0.25530777084736533     
          45  -3.4456786625718973E-002
          46   1.7222650073108508E-002
          47  -5.4650311052151972E-003
          48   1.6230377804690734E-010
          49   3.6549543351487262E-012
          50  0.12326870028789291     
          51  -3.4753643631896783E-012
          52 -0.25530777074699518     
          53   3.4456786761279244E-002
          54   1.7222650114710619E-002
          55   5.4650311030666381E-003
          56  -6.0953851194042973E-002
          57   6.0953851092535705E-002
          58   9.8626358254845295E-002
          59   6.2704110768777921E-011
          60  -9.8626358216042612E-002
Sym=     4a
Ene=  -0.59767285658358538     
Spin= Alpha
Occup=     2.00000000
           1 -0.21717773169682955     
           2  -4.6533227651367061E-002
           3   5.5751566646137091E-002
           4  -4.6488396559527844E-003
           5 -0.21717773188774886     
           6  -4.6533227583923510E-002
           7  -5.5751566546003474E-002
           8  -4.6488396600387442E-003
           9   8.2954032410040679E-002
          10 -0.11207406933169665     
          11   3.4456274224624203E-002
          12   1.7757051215798545E-003
          13  0.26844638676218913     
          14  -6.0281188218622821E-003
          15   7.4546503522130110E-011
          16   5.7462649406281536E-003
          17   8.2954032718873499E-002
          18 -0.11207406928996633     
          19  -3.4456274203781334E-002
          20   1.7757051281919185E-003
          21  -8.3896439299680381E-002
          22  -8.3896439373431969E-002
          23   3.2045736022482126E-002
          24  0.10370260140853980     
          25   3.2045736141785332E-002
          26   1.4130731163223987E-014
          27   7.0056956147870212E-015
          28  -2.1136426778011009E-014
          29   6.5952044039905459E-016
          30  -1.5465921962318445E-014
          31  -2.1483338967300205E-015
          32  -2.9111183967012762E-014
          33 -0.13902578847293731     
          34   8.4103982371493118E-011
          35   7.0696665482195394E-009
          36  0.21717773169670465     
          37  -4.6533227651210603E-002
          38   5.5751566646113644E-002
          39  -4.6488396559561228E-003
          40  0.21717773188773176     
          41  -4.6533227583768925E-002
          42  -5.5751566545941759E-002
          43  -4.6488396600443604E-003
          44  -8.2954032409760819E-002
          45 -0.11207406933168372     
          46   3.4456274224543088E-002
          47   1.7757051215726472E-003
          48 -0.26844638676189658     
          49  -6.0281188219689884E-003
          50   7.4549192823314282E-011
          51   5.7462649406232157E-003
          52  -8.2954032718640658E-002
          53 -0.11207406928990810     
          54  -3.4456274203696194E-002
          55   1.7757051281850386E-003
          56   8.3896439299584222E-002
          57   8.3896439373389836E-002
          58  -3.2045736022405492E-002
          59 -0.10370260140847679     
          60  -3.2045736141720210E-002
Sym=     5a
Ene=  -0.58317070647569669     
Spin= Alpha
Occup=     2.00000000
           1  0.17056392282430266     
           2  -6.2958338456788901E-002
           3   9.4669435750814518E-002
           4  -1.6718014017748633E-004
           5 -0.17056392259119688     
           6   6.2958338510112205E-002
           7   9.4669435813385328E-002
           8   1.6718013994472368E-004
           9 -0.27597839481672154     
          10  -3.8910463489216882E-002
          11   2.0658033686586540E-002
          12   2.7051733328626519E-004
          13  -1.4388275564820010E-010
          14   4.0036785828542703E-012
          15  0.14041075642007947     
          16   1.4014258997569629E-013
          17  0.27597839472776620     
          18   3.8910463616004087E-002
          19   2.0658033725072404E-002
          20  -2.7051733320227703E-004
          21   6.9547718544721984E-002
          22  -6.9547718449714940E-002
          23 -0.11253164714914730     
          24  -5.8685231264824393E-011
          25  0.11253164711280997     
          26  -8.6179252344790860E-015
          27   1.3062059496506933E-014
          28  -4.4441342620278473E-015
          29  -1.0255153798164174E-008
          30   1.7152560889973038E-011
          31   3.4564627764209988E-002
          32   2.5372518269268009E-014
          33  -1.0146397032914216E-014
          34  -2.8404058610375448E-014
          35   1.0575703388627599E-014
          36  0.17056392282430727     
          37   6.2958338456806720E-002
          38  -9.4669435750746961E-002
          39   1.6718014017347031E-004
          40 -0.17056392259110353     
          41  -6.2958338510153145E-002
          42  -9.4669435813398539E-002
          43  -1.6718013994274617E-004
          44 -0.27597839481689962     
          45   3.8910463489156569E-002
          46  -2.0658033686623691E-002
          47  -2.7051733328305232E-004
          48  -1.4388367952393580E-010
          49  -4.0121013748411908E-012
          50 -0.14041075642021322     
          51  -1.3889163034361658E-013
          52  0.27597839472791469     
          53  -3.8910463615964085E-002
          54  -2.0658033725069084E-002
          55   2.7051733319942846E-004
          56   6.9547718544693660E-002
          57  -6.9547718449664175E-002
          58 -0.11253164714924892     
          59  -5.8690992229897361E-011
          60  0.11253164711287451     
Sym=     6a
Ene=  -0.58317001300229310     
Spin= Alpha
Occup=     2.00000000
           1 -0.23476102066545740     
           2  -5.3757061971563436E-002
           3   6.2957464327667884E-002
           4   2.3012742559866192E-004
           5 -0.23476102083482639     
           6  -5.3757061909078724E-002
           7  -6.2957464233670393E-002
           8   2.3012742576298262E-004
           9   8.9670340001103882E-002
          10 -0.12776918582626240     
          11   3.8909850455553431E-002
          12  -8.7929910478289866E-005
          13  0.29018094103436831     
          14  -8.0166709411694185E-003
          15   6.9657026287045965E-011
          16  -2.8449216176461235E-004
          17   8.9670340275001634E-002
          18 -0.12776918578756544     
          19  -3.8909850435041658E-002
          20  -8.7929910745703209E-005
          21  -9.5724954285237765E-002
          22  -9.5724954354308889E-002
          23   3.6563849132999864E-002
          24  0.11832373116471938     
          25   3.6563849244675803E-002
          26  -1.2147266060213937E-007
          27  -3.1967348887162512E-008
          28   1.5344000948930188E-007
          29  -1.2409289034074293E-014
          30  -3.4564202617833995E-002
          31   1.7152138652180819E-011
          32   9.4145578061293719E-008
          33   5.6416380605638288E-014
          34   1.0169779890690250E-014
          35  -3.4764702726727671E-014
          36 -0.23476102066562080     
          37   5.3757061971480086E-002
          38  -6.2957464327679583E-002
          39  -2.3012742559181898E-004
          40 -0.23476102083502179     
          41   5.3757061909034974E-002
          42   6.2957464233685353E-002
          43  -2.3012742575860074E-004
          44   8.9670340001106463E-002
          45  0.12776918582642463     
          46  -3.8909850455568822E-002
          47   8.7929910474332339E-005
          48  0.29018094103461012     
          49   8.0166709412594957E-003
          50  -6.9616234889604339E-011
          51   2.8449216175901142E-004
          52   8.9670340274892887E-002
          53  0.12776918578769236     
          54   3.8909850435063835E-002
          55   8.7929910743768058E-005
          56  -9.5724954285259650E-002
          57  -9.5724954354360958E-002
          58   3.6563849133022339E-002
          59  0.11832373116486641     
          60   3.6563849244643912E-002
Sym=     7a
Ene=  -0.53366713713473890     
Spin= Alpha
Occup=     2.00000000
           1  -6.6047745029889721E-002
           2 -0.13058353051696048     
           3  0.11949079353548085     
           4  -2.3981141336337888E-004
           5  -6.6047749488849394E-002
           6 -0.13058353172456372     
           7 -0.11949079113024524     
           8  -2.3981142956629471E-004
           9  0.17291700066005961     
          10   7.3285092763771015E-002
          11 -0.12130009624534535     
          12   6.2849775816533726E-004
          13 -0.21373426553736541     
          14  0.11459554239189489     
          15  -1.9998770455745380E-009
          16  -7.7646059181308679E-004
          17  0.17291699790443979     
          18   7.3285096297945732E-002
          19  0.12130009584003418     
          20   6.2849774814609911E-004
          21  -5.4367863294321674E-002
          22  -5.4367866964899078E-002
          23  0.14234778815303006     
          24 -0.17594381326629968     
          25  0.14234778588453026     
          26   1.6953251563167116E-002
          27  -1.6953781793576077E-002
          28   5.3023040895793254E-007
          29  -2.1472181251338851E-010
          30  -7.9249317220661568E-008
          31  -1.4939707815370077E-014
          32  -9.5775356707699273E-007
          33   2.5743242029241748E-014
          34  -7.2507190040484190E-015
          35   2.4676947625914956E-015
          36  -6.6047745029387525E-002
          37  0.13058353051645344     
          38 -0.11949079353538410     
          39   2.3981141336959193E-004
          40  -6.6047749489156371E-002
          41  0.13058353172429296     
          42  0.11949079112973156     
          43   2.3981142957002832E-004
          44  0.17291700065991153     
          45  -7.3285092763211560E-002
          46  0.12130009624514894     
          47  -6.2849775816727744E-004
          48 -0.21373426553677413     
          49 -0.11459554239160839     
          50   2.0001954742443167E-009
          51   7.7646059181153053E-004
          52  0.17291699790384865     
          53  -7.3285096297973473E-002
          54 -0.12130009583974945     
          55  -6.2849774815459556E-004
          56  -5.4367863293853680E-002
          57  -5.4367866965095948E-002
          58  0.14234778815295948     
          59 -0.17594381326584371     
          60  0.14234778588407615     
Sym=     8a
Ene=  -0.53366689015165913     
Spin= Alpha
Occup=     2.00000000
           1 -0.20327521866292370     
           2  -5.5053868599893488E-002
           3 -0.10965036185530307     
           4  -7.3862949370818813E-004
           5  0.20327521721382186     
           6   5.5053865734960857E-002
           7 -0.10965036447682043     
           8   7.3862948845086686E-004
           9 -0.12563051182448420     
          10  0.16111990951747035     
          11   1.8475794294610753E-002
          12  -4.5649867359556681E-004
          13  -2.3444853641104338E-009
          14   1.2570613651626779E-009
          15  0.18234955117549256     
          16  -8.5184296249117622E-012
          17  0.12563051561808819     
          18 -0.16111990790966108     
          19   1.8475796955717078E-002
          20   4.5649868737829828E-004
          21 -0.16733550472194289     
          22  0.16733550352909871     
          23 -0.10341948779388306     
          24  -1.9299868960470520E-009
          25  0.10341949091677624     
          26   1.8595217357027594E-010
          27  -1.8595667994783700E-010
          28   4.5063775610482180E-015
          29   1.9576098408577654E-002
          30   1.2480842887682247E-014
          31   7.9619976353128539E-008
          32  -7.4234694236764042E-015
          33   9.5764031086402541E-015
          34   2.9175920418452906E-014
          35   1.7520674103610975E-015
          36 -0.20327521866001191     
          37   5.5053868598794999E-002
          38  0.10965036185394191     
          39   7.3862949373422308E-004
          40  0.20327521721111216     
          41  -5.5053865734371821E-002
          42  0.10965036447515027     
          43  -7.3862948847080914E-004
          44 -0.12563051182291940     
          45 -0.16111990951515229     
          46  -1.8475794294527212E-002
          47   4.5649867359787339E-004
          48  -2.3440620809400796E-009
          49  -1.2568223732462554E-009
          50 -0.18234955117296753     
          51   8.5185152432598957E-012
          52  0.12563051561593164     
          53  0.16111990790762781     
          54  -1.8475796955248220E-002
          55  -4.5649868738665406E-004
          56 -0.16733550471946940     
          57  0.16733550352687687     
          58 -0.10341948779263550     
          59  -1.9296321558483766E-009
          60  0.10341949091506814     
Sym=     9a
Ene=  -0.53266936925509878     
Spin= Alpha
Occup=     2.00000000
           1  -6.6228038703385256E-002
           2 -0.13037321686617598     
           3  0.11906167463476951     
           4   4.3414143614027638E-004
           5  -6.6228043323345420E-002
           6 -0.13037321812066055     
           7 -0.11906167214892824     
           8   4.3414146641794341E-004
           9  0.17338884502108298     
          10   7.2942477891941901E-002
          11 -0.12141345674673913     
          12  -1.1367448082403695E-003
          13 -0.21431810629437323     
          14  0.11486043272420808     
          15  -2.0608819688076013E-009
          16   1.4050893500093863E-003
          17  0.17338884216585485     
          18   7.2942481536241735E-002