[Molden Format]
[Title]
[Atoms] AU
C      1     6  0.18752508225058E+01  0.13624547413288E+01 -0.32840605456716E+01
C      2     6  0.18752508225058E+01 -0.13624547413288E+01 -0.32840605456716E+01
C      3     6 -0.71628179027613E+00 -0.22044978051985E+01 -0.32840605456716E+01
C      4     6 -0.23179380644594E+01  0.00000000000000E+00 -0.32840605456716E+01
C      5     6 -0.71628179027613E+00  0.22044978051985E+01 -0.32840605456716E+01
H      6     1  0.35276840376577E+01  0.25630166455615E+01 -0.32695285517733E+01
H      7     1  0.35276840376577E+01 -0.25630166455615E+01 -0.32695285517733E+01
H      8     1 -0.13474503158994E+01 -0.41470417750020E+01 -0.32695285517733E+01
H      9     1 -0.43604485462554E+01  0.00000000000000E+00 -0.32695285517733E+01
H     10     1 -0.13474503158994E+01  0.41470417750020E+01 -0.32695285517733E+01
Fe    11    26 -0.00000000000000E+00 -0.00000000000000E+00 -0.00000000000000E+00
C     12     6 -0.18752508225058E+01 -0.13624547413288E+01  0.32840605456716E+01
C     13     6 -0.18752508225058E+01  0.13624547413288E+01  0.32840605456716E+01
C     14     6  0.71628179027613E+00  0.22044978051985E+01  0.32840605456716E+01
C     15     6  0.23179380644594E+01 -0.00000000000000E+00  0.32840605456716E+01
C     16     6  0.71628179027613E+00 -0.22044978051985E+01  0.32840605456716E+01
H     17     1 -0.35276840376577E+01 -0.25630166455615E+01  0.32695285517733E+01
H     18     1 -0.35276840376577E+01  0.25630166455615E+01  0.32695285517733E+01
H     19     1  0.13474503158994E+01  0.41470417750020E+01  0.32695285517733E+01
H     20     1  0.43604485462554E+01 -0.00000000000000E+00  0.32695285517733E+01
H     21     1  0.13474503158994E+01 -0.41470417750020E+01  0.32695285517733E+01
[GTO]
           1 0
 s           4   1.0000000000000000     
   51.049363095579913      -0.16312063210127389     
   8.7911227406887544      -0.19911024581000730     
  0.70640422258929825       0.31882047753655751     
  0.26922813413411617       0.12706504184240380     
 p           4   1.0000000000000000     
   5.8263656140800002       0.73716451545209605     
   1.5106896018720002       0.68216371614850257     
  0.53256483288000001       0.35783053929253711     
  0.21202323690600003        5.3983030275847881E-002

           2 0
 s           4   1.0000000000000000     
   51.049363095579913      -0.16312063210127389     
   8.7911227406887544      -0.19911024581000730     
  0.70640422258929825       0.31882047753655751     
  0.26922813413411617       0.12706504184240380     
 p           4   1.0000000000000000     
   5.8263656140800002       0.73716451545209605     
   1.5106896018720002       0.68216371614850257     
  0.53256483288000001       0.35783053929253711     
  0.21202323690600003        5.3983030275847881E-002

           3 0
 s           4   1.0000000000000000     
   51.049363095579913      -0.16312063210127389     
   8.7911227406887544      -0.19911024581000730     
  0.70640422258929825       0.31882047753655751     
  0.26922813413411617       0.12706504184240380     
 p           4   1.0000000000000000     
   5.8263656140800002       0.73716451545209605     
   1.5106896018720002       0.68216371614850257     
  0.53256483288000001       0.35783053929253711     
  0.21202323690600003        5.3983030275847881E-002

           4 0
 s           4   1.0000000000000000     
   51.049363095579913      -0.16312063210127389     
   8.7911227406887544      -0.19911024581000730     
  0.70640422258929825       0.31882047753655751     
  0.26922813413411617       0.12706504184240380     
 p           4   1.0000000000000000     
   5.8263656140800002       0.73716451545209605     
   1.5106896018720002       0.68216371614850257     
  0.53256483288000001       0.35783053929253711     
  0.21202323690600003        5.3983030275847881E-002

           5 0
 s           4   1.0000000000000000     
   51.049363095579913      -0.16312063210127389     
   8.7911227406887544      -0.19911024581000730     
  0.70640422258929825       0.31882047753655751     
  0.26922813413411617       0.12706504184240380     
 p           4   1.0000000000000000     
   5.8263656140800002       0.73716451545209605     
   1.5106896018720002       0.68216371614850257     
  0.53256483288000001       0.35783053929253711     
  0.21202323690600003        5.3983030275847881E-002

           6 0
 s           3   1.0000000000000000     
   3.3702276975336001       0.27359110588908298     
  0.61389118221497996       0.26460540653860526     
  0.16614291148415999        8.2465947534082318E-002

           7 0
 s           3   1.0000000000000000     
   3.3702276975336001       0.27359110588908298     
  0.61389118221497996       0.26460540653860526     
  0.16614291148415999        8.2465947534082318E-002

           8 0
 s           3   1.0000000000000000     
   3.3702276975336001       0.27359110588908298     
  0.61389118221497996       0.26460540653860526     
  0.16614291148415999        8.2465947534082318E-002

           9 0
 s           3   1.0000000000000000     
   3.3702276975336001       0.27359110588908298     
  0.61389118221497996       0.26460540653860526     
  0.16614291148415999        8.2465947534082318E-002

          10 0
 s           3   1.0000000000000000     
   3.3702276975336001       0.27359110588908298     
  0.61389118221497996       0.26460540653860526     
  0.16614291148415999        8.2465947534082318E-002

          11 0
 d           3   1.0000000000000000     
   1.9097284056068595       0.86123337497982078     
  0.59879816752509318       0.39233450236476580     
  0.23324664383551713        5.2271843589666030E-002
 s           4   1.0000000000000000     
  0.33890443730507491       -3.5477315373264193E-002
  0.17385400358364450       -5.4600427324903063E-002
   5.3112073797143146E-002   7.0254894937927317E-002
   2.9571878021481552E-002   1.7878941350210724E-002
 p           4   1.0000000000000000     
   2.5010806535903765       -2.7057806256651110E-002
  0.72515527904784138       -5.7357803326340752E-002
  0.12656406788646482        6.9420869019116579E-002
   6.2103957630462676E-002   1.8197741520476433E-002

          12 0
 s           4   1.0000000000000000     
   51.049363095579913      -0.16312063210127389     
   8.7911227406887544      -0.19911024581000730     
  0.70640422258929825       0.31882047753655751     
  0.26922813413411617       0.12706504184240380     
 p           4   1.0000000000000000     
   5.8263656140800002       0.73716451545209605     
   1.5106896018720002       0.68216371614850257     
  0.53256483288000001       0.35783053929253711     
  0.21202323690600003        5.3983030275847881E-002

          13 0
 s           4   1.0000000000000000     
   51.049363095579913      -0.16312063210127389     
   8.7911227406887544      -0.19911024581000730     
  0.70640422258929825       0.31882047753655751     
  0.26922813413411617       0.12706504184240380     
 p           4   1.0000000000000000     
   5.8263656140800002       0.73716451545209605     
   1.5106896018720002       0.68216371614850257     
  0.53256483288000001       0.35783053929253711     
  0.21202323690600003        5.3983030275847881E-002

          14 0
 s           4   1.0000000000000000     
   51.049363095579913      -0.16312063210127389     
   8.7911227406887544      -0.19911024581000730     
  0.70640422258929825       0.31882047753655751     
  0.26922813413411617       0.12706504184240380     
 p           4   1.0000000000000000     
   5.8263656140800002       0.73716451545209605     
   1.5106896018720002       0.68216371614850257     
  0.53256483288000001       0.35783053929253711     
  0.21202323690600003        5.3983030275847881E-002

          15 0
 s           4   1.0000000000000000     
   51.049363095579913      -0.16312063210127389     
   8.7911227406887544      -0.19911024581000730     
  0.70640422258929825       0.31882047753655751     
  0.26922813413411617       0.12706504184240380     
 p           4   1.0000000000000000     
   5.8263656140800002       0.73716451545209605     
   1.5106896018720002       0.68216371614850257     
  0.53256483288000001       0.35783053929253711     
  0.21202323690600003        5.3983030275847881E-002

          16 0
 s           4   1.0000000000000000     
   51.049363095579913      -0.16312063210127389     
   8.7911227406887544      -0.19911024581000730     
  0.70640422258929825       0.31882047753655751     
  0.26922813413411617       0.12706504184240380     
 p           4   1.0000000000000000     
   5.8263656140800002       0.73716451545209605     
   1.5106896018720002       0.68216371614850257     
  0.53256483288000001       0.35783053929253711     
  0.21202323690600003        5.3983030275847881E-002

          17 0
 s           3   1.0000000000000000     
   3.3702276975336001       0.27359110588908298     
  0.61389118221497996       0.26460540653860526     
  0.16614291148415999        8.2465947534082318E-002

          18 0
 s           3   1.0000000000000000     
   3.3702276975336001       0.27359110588908298     
  0.61389118221497996       0.26460540653860526     
  0.16614291148415999        8.2465947534082318E-002

          19 0
 s           3   1.0000000000000000     
   3.3702276975336001       0.27359110588908298     
  0.61389118221497996       0.26460540653860526     
  0.16614291148415999        8.2465947534082318E-002

          20 0
 s           3   1.0000000000000000     
   3.3702276975336001       0.27359110588908298     
  0.61389118221497996       0.26460540653860526     
  0.16614291148415999        8.2465947534082318E-002

          21 0
 s           3   1.0000000000000000     
   3.3702276975336001       0.27359110588908298     
  0.61389118221497996       0.26460540653860526     
  0.16614291148415999        8.2465947534082318E-002

[MO]
Sym=     1a
Ene=  -0.65866051022378602     
Spin= Alpha
Occup=     2.00000000
           1  0.17687530418361866     
           2  -5.0781853373341020E-002
           3  -3.6894704372016369E-002
           4  -5.5832093344116559E-003
           5  0.17687530418357811     
           6  -5.0781853373321396E-002
           7   3.6894704372026688E-002
           8  -5.5832093344124166E-003
           9  0.17687575665852179     
          10   1.9396981473221320E-002
          11   5.9697325651528618E-002
          12  -5.5832043780369685E-003
          13  0.17687534654288017     
          14   6.2769407697272267E-002
          15   1.2420211773060112E-014
          16  -5.5832285883454331E-003
          17  0.17687575665859037     
          18   1.9396981473233786E-002
          19  -5.9697325651542607E-002
          20  -5.5832043780359251E-003
          21   2.6233491919436944E-002
          22   2.6233491919428663E-002
          23   2.6233923078719652E-002
          24   2.6233795302341142E-002
          25   2.6233923078733234E-002
          26   5.7982125587341993E-014
          27   5.7776540632092432E-014
          28  -1.1575866621943443E-013
          29  -1.4174831135380884E-016
          30  -1.9008248054125055E-015
          31   5.1943162946926790E-015
          32  -1.9858998782446731E-013
          33  -1.8959754775378732E-007
          34  -4.3904941922599801E-015
          35 -0.19393496310099156     
          36 -0.17687530418293723     
          37  -5.0781853373108081E-002
          38  -3.6894704371875052E-002
          39  -5.5832093344534359E-003
          40 -0.17687530418297756     
          41  -5.0781853373121084E-002
          42   3.6894704371865900E-002
          43  -5.5832093344529120E-003
          44 -0.17687575665790412     
          45   1.9396981473155869E-002
          46   5.9697325651276938E-002
          47  -5.5832043780774917E-003
          48 -0.17687534654220086     
          49   6.2769407697000845E-002
          50  -6.6865653043066119E-015
          51  -5.5832285883869919E-003
          52 -0.17687575665787281     
          53   1.9396981473147112E-002
          54  -5.9697325651276958E-002
          55  -5.5832043780778048E-003
          56  -2.6233491919276240E-002
          57  -2.6233491919288254E-002
          58  -2.6233923078575389E-002
          59  -2.6233795302181406E-002
          60  -2.6233923078564526E-002
Sym=     2a
Ene=  -0.63717807536872684     
Spin= Alpha
Occup=     2.00000000
           1  0.22253007383146930     
           2  -7.2298962114290627E-002
           3  -5.2527661273793921E-002
           4   1.4832340926308356E-002
           5  0.22253007383137913     
           6  -7.2298962114251089E-002
           7   5.2527661273828956E-002
           8   1.4832340926306774E-002
           9  0.22253043947063100     
          10   2.7615930502471773E-002
          11   8.4992054353434987E-002
          12   1.4832340632166449E-002
          13  0.22252974274576651     
          14   8.9365889681446445E-002
          15   3.2712713907855351E-014
          16   1.4832319412136787E-002
          17  0.22253043947078227     
          18   2.7615930502495455E-002
          19  -8.4992054353446478E-002
          20   1.4832340632169665E-002
          21   5.4148086630484878E-002
          22   5.4148086630458600E-002
          23   5.4148511243783268E-002
          24   5.4148372014507958E-002
          25   5.4148511243828218E-002
          26   3.4889421610826053E-002
          27   3.4889140849537655E-002
          28  -6.9778562460363708E-002
          29   4.0399441482872028E-016
          30   4.5149639710340310E-008
          31   9.8405166025318749E-015
          32 -0.12398849221933995     
          33  -8.3178419770161951E-015
          34   2.1822075415585024E-014
          35   3.0534176483623699E-013
          36  0.22253007383194687     
          37   7.2298962114398332E-002
          38   5.2527661273926420E-002
          39  -1.4832340926291805E-002
          40  0.22253007383199508     
          41   7.2298962114413057E-002
          42  -5.2527661273915428E-002
          43  -1.4832340926293045E-002
          44  0.22253043947122544     
          45  -2.7615930502555838E-002
          46  -8.4992054353595317E-002
          47  -1.4832340632151882E-002
          48  0.22252974274624276     
          49  -8.9365889681612173E-002
          50   5.2392004986632937E-015
          51  -1.4832319412120317E-002
          52  0.22253043947118994     
          53  -2.7615930502542890E-002
          54   8.4992054353593860E-002
          55  -1.4832340632152632E-002
          56   5.4148086630563440E-002
          57   5.4148086630575645E-002
          58   5.4148511243895296E-002
          59   5.4148372014584313E-002
          60   5.4148511243887663E-002
Sym=     3a
Ene=  -0.59767352240088245     
Spin= Alpha
Occup=     2.00000000
           1  0.15778878730058946     
           2  -5.5752196490852425E-002
           3   8.2762820705882978E-002
           4   3.3775674837135351E-003
           5 -0.15778878789579104     
           6   5.5752196363350617E-002
           7   8.2762820553050884E-002
           8  -3.3775674964557703E-003
           9 -0.25530777068414351     
          10  -3.4456786847169490E-002
          11   1.7222650141125513E-002
          12  -5.4650311017051039E-003
          13   3.6773545095069213E-010
          14  -8.2736070451833699E-012
          15  0.12326870028816087     
          16   7.8714516268651029E-012
          17  0.25530777091143186     
          18   3.4456786540070242E-002
          19   1.7222650046780100E-002
          20   5.4650311065689086E-003
          21   6.0953851028503543E-002
          22  -6.0953851258413197E-002
          23  -9.8626358191754152E-002
          24   1.4206399246043652E-010
          25   9.8626358279585921E-002
          26  -3.8749184747828492E-015
          27  -7.5508411405578257E-015
          28   1.1425759615340675E-014
          29   7.3296915032282872E-016
          30   1.9033441786208009E-015
          31   8.3208504107973157E-014
          32   1.5325442430227449E-014
          33  -1.9048674996769775E-010
          34  0.13902570429240105     
          35   1.4494625596007673E-014
          36 -0.15778878729995138     
          37  -5.5752196490602868E-002
          38   8.2762820705451545E-002
          39   3.3775674837150109E-003
          40  0.15778878789504530     
          41   5.5752196363060565E-002
          42   8.2762820552715166E-002
          43  -3.3775674964509413E-003
          44  0.25530777068293420     
          45  -3.4456786847026181E-002
          46   1.7222650141111399E-002
          47  -5.4650311016991877E-003
          48  -3.6787413251135553E-010
          49  -8.2403564481509632E-012
          50  0.12326870028755962     
          51   7.8753612037341198E-012
          52 -0.25530777091033002     
          53   3.4456786539898920E-002
          54   1.7222650046639310E-002
          55   5.4650311065682364E-003
          56  -6.0953851028242974E-002
          57   6.0953851258149214E-002
          58   9.8626358191313476E-002
          59  -1.4210429389067000E-010
          60  -9.8626358279136600E-002
Sym=     4a
Ene=  -0.59767285658357583     
Spin= Alpha
Occup=     2.00000000
           1 -0.21717773200898263     
           2  -4.6533227541290530E-002
           3   5.5751566482779541E-002
           4  -4.6488396626243652E-003
           5 -0.21717773157651660     
           6  -4.6533227694066572E-002
           7  -5.5751566709604204E-002
           8  -4.6488396533671929E-003
           9   8.2954032914335160E-002
          10 -0.11207406926384482     
          11   3.4456274190632435E-002
          12   1.7757051323683039E-003
          13  0.26844638676259774     
          14  -6.0281188219198905E-003
          15  -1.6888716934373228E-010
          16   5.7462649406198728E-003
          17   8.2954032214707721E-002
          18 -0.11207406935832143     
          19  -3.4456274237835233E-002
          20   1.7757051173924003E-003
          21  -8.3896439420244495E-002
          22  -8.3896439253173971E-002
          23   3.2045736217308364E-002
          24  0.10370260140871670     
          25   3.2045735947043325E-002
          26  -3.1848394019989988E-015
          27  -1.2115713331147256E-015
          28   4.3964107351137244E-015
          29   2.4221252081084842E-015
          30  -8.1617598806984638E-014
          31  -2.2709248760810350E-015
          32   5.8787475777916817E-015
          33 -0.13902578847292060     
          34  -1.9048944542573504E-010
          35   7.0696329592412835E-009
          36  0.21717773200793980     
          37  -4.6533227541095921E-002
          38   5.5751566482537318E-002
          39  -4.6488396626197968E-003
          40  0.21717773157560516     
          41  -4.6533227693882753E-002
          42  -5.5751566709316192E-002
          43  -4.6488396533654903E-003
          44  -8.2954032914001663E-002
          45 -0.11207406926334559     
          46   3.4456274190482410E-002
          47   1.7757051323692393E-003
          48 -0.26844638676143079     
          49  -6.0281188218750045E-003
          50  -1.6889854662304346E-010
          51   5.7462649406181355E-003
          52  -8.2954032214389156E-002
          53 -0.11207406935774959     
          54  -3.4456274237679461E-002
          55   1.7757051173925285E-003
          56   8.3896439419844523E-002
          57   8.3896439252843250E-002
          58  -3.2045736217180119E-002
          59 -0.10370260140825970     
          60  -3.2045735946911437E-002
Sym=     5a
Ene=  -0.58317070647569857     
Spin= Alpha
Occup=     2.00000000
           1  0.17056392229349593     
           2  -6.2958338578135500E-002
           3   9.4669435892959314E-002
           4  -1.6718013966421578E-004
           5 -0.17056392312134247     
           6   6.2958338388586027E-002
           7   9.4669435670893684E-002
           8   1.6718014047659090E-004
           9 -0.27597839461371559     
          10  -3.8910463777783531E-002
          11   2.0658033774356700E-002
          12   2.7051733310694373E-004
          13   5.1152347584704389E-010
          14  -1.4144162099612010E-011
          15  0.14041075641987111     
          16  -5.0019492199043605E-013
          17  0.27597839492990756     
          18   3.8910463327283200E-002
          19   2.0658033637249072E-002
          20  -2.7051733341485075E-004
          21   6.9547718328303365E-002
          22  -6.9547718665834424E-002
          23 -0.11253164706631702     
          24   2.0858537316045658E-010
          25  0.11253164719529217     
          26   2.8367680464615925E-015
          27  -2.9241235390444288E-015
          28   8.7355492582836510E-017
          29  -1.0255161013177872E-008
          30  -6.0935756576313798E-011
          31   3.4564627764254362E-002
          32  -9.0933564348996945E-015
          33  -8.5752794563312959E-015
          34  -3.0233871865792731E-013
          35   1.8389214647639396E-014
          36  0.17056392229421732     
          37   6.2958338578334314E-002
          38  -9.4669435893244808E-002
          39   1.6718013964114509E-004
          40 -0.17056392312193802     
          41  -6.2958338388814511E-002
          42  -9.4669435671297000E-002
          43  -1.6718014045460084E-004
          44 -0.27597839461475804     
          45   3.8910463777926618E-002
          46  -2.0658033774477856E-002
          47  -2.7051733307019871E-004
          48   5.1156260004886367E-010
          49   1.4134808968875022E-011
          50 -0.14041075642034312     
          51   5.0154490118039108E-013
          52  0.27597839493090282     
          53  -3.8910463327431519E-002
          54  -2.0658033637283534E-002
          55   2.7051733337820011E-004
          56   6.9547718328592634E-002
          57  -6.9547718666101377E-002
          58 -0.11253164706677139     
          59   2.0859454642779437E-010
          60  0.11253164719567935     
Sym=     6a
Ene=  -0.58317001300228788     
Spin= Alpha
Occup=     2.00000000
           1 -0.23476102105050486     
           2  -5.3757061829247520E-002
           3   6.2957464113665013E-002
           4   2.3012742598709071E-004
           5 -0.23476102044905961     
           6  -5.3757062051209795E-002
           7  -6.2957464447476921E-002
           8   2.3012742539628528E-004
           9   8.9670340624421363E-002
          10 -0.12776918573813439     
          11   3.8909850408834025E-002
          12  -8.7929911095143589E-005
          13  0.29018094103395042     
          14  -8.0166709411523089E-003
          15  -2.4750065351176440E-010
          16  -2.8449216178121398E-004
          17   8.9670339651424874E-002
          18 -0.12776918587539207     
          19  -3.8909850481673142E-002
          20  -8.7929910140270568E-005
          21  -9.5724954442247795E-002
          22  -9.5724954196992548E-002
          23   3.6563849387152035E-002
          24  0.11832373116454409     
          25   3.6563848990415961E-002
          26  -1.2147265350270085E-007
          27  -3.1967355044003912E-008
          28   1.5344000854670477E-007
          29   3.2794564045177497E-015
          30  -3.4564202617874809E-002
          31  -6.0935018228588769E-011
          32   9.4145594831761219E-008
          33   2.9656718994044989E-013
          34   8.2538009188170462E-015
          35   6.8905815901708694E-015
          36 -0.23476102105132207     
          37   5.3757061829433350E-002
          38  -6.2957464113890485E-002
          39  -2.3012742595497361E-004
          40 -0.23476102044995628     
          41   5.3757062051441755E-002
          42   6.2957464447685005E-002
          43  -2.3012742536698835E-004
          44   8.9670340624835240E-002
          45  0.12776918573859747     
          46  -3.8909850408963199E-002
          47   8.7929911082828760E-005
          48  0.29018094103500558     
          49   8.0166709411701644E-003
          50   2.4755315217996953E-010
          51   2.8449216174402579E-004
          52   8.9670339651715059E-002
          53  0.12776918587578034     
          54   3.8909850481807860E-002
          55   8.7929910129598793E-005
          56  -9.5724954442581889E-002
          57  -9.5724954197385803E-002
          58   3.6563849387327409E-002
          59  0.11832373116497255     
          60   3.6563848990526303E-002
Sym=     7a
Ene=  -0.53366713713473479     
Spin= Alpha
Occup=     2.00000000
           1  -6.6047747708397733E-002
           2 -0.13058353124547573     
           3  0.11949079209508136     
           4  -2.3981142307267654E-004
           5  -6.6047746814053329E-002
           6 -0.13058353100326855     
           7 -0.11949079257749194     
           8  -2.3981141982877077E-004
           9  0.17291699901088065     
          10   7.3285094887304933E-002
          11 -0.12130009600558452     
          12   6.2849775212636477E-004
          13 -0.21373426554342637     
          14  0.11459554239503605     
          15   4.0106398642496194E-010
          16  -7.7646059176272690E-004
          17  0.17291699956350701     
          18   7.3285094178505955E-002
          19  0.12130009608690728     
          20   6.2849775412836218E-004
          21  -5.4367865499167015E-002
          22  -5.4367864762960932E-002
          23  0.14234778679540550     
          24 -0.17594381327117367     
          25  0.14234778725037703     
          26   1.6953251563179769E-002
          27  -1.6953781793600235E-002
          28   5.3023042046631815E-007
          29   4.3027999957439975E-011
          30  -7.9249326064784152E-008
          31   5.0364827351891740E-015
          32  -9.5775359238129544E-007
          33  -5.5616300187546707E-015
          34  -1.3526052737551331E-014
          35  -8.8538549488820076E-016
          36  -6.6047747703749216E-002
          37  0.13058353123756869     
          38 -0.11949079208838881     
          39   2.3981142309998158E-004
          40  -6.6047746810842980E-002
          41  0.13058353099575901     
          42  0.11949079257005267     
          43   2.3981141985018119E-004
          44  0.17291699900100402     
          45  -7.3285094882467747E-002
          46  0.12130009599848003     
          47  -6.2849775218964401E-004
          48 -0.21373426553076844     
          49 -0.11459554238825846     
          50  -4.0050497331061667E-010
          51   7.7646059184794953E-004
          52  0.17291699955285411     
          53  -7.3285094174712309E-002
          54 -0.12130009607963481     
          55  -6.2849775420315327E-004
          56  -5.4367865495387746E-002
          57  -5.4367864760353900E-002
          58  0.14234778678736143     
          59 -0.17594381326083813     
          60  0.14234778724164843     
Sym=     8a
Ene=  -0.53366689015165847     
Spin= Alpha
Occup=     2.00000000
           1 -0.20327521779763186     
           2  -5.5053866881744511E-002
           3 -0.10965036343086919     
           4  -7.3862949052071105E-004
           5  0.20327521808781635     
           6   5.5053867455389711E-002
           7 -0.10965036290593269     
           8   7.3862949158265434E-004
           9 -0.12563051410372128     
          10  0.16111990855607081     
          11   1.8475795891954291E-002
          12  -4.5649868184548253E-004
          13   4.6938249671363754E-010
          14  -2.5168826694666246E-010
          15  0.18234955117937032     
          16   1.7093462764460608E-012
          17  0.12563051334415998     
          18 -0.16111990887800232     
          19   1.8475795359169895E-002
          20   4.5649867908147238E-004
          21 -0.16733550400962086     
          22  0.16733550424846749     
          23 -0.10341948967014009     
          24   3.8641063851171081E-010
          25  0.10341948904489119     
          26  -3.7265237459490405E-011
          27   3.7262833776545303E-011
          28   2.4036829450965565E-015
          29   1.9576098408600542E-002
          30  -4.3028719489816311E-015
          31   7.9619966889872343E-008
          32  -6.8994978836260423E-015
          33   1.5878396674679401E-014
          34  -5.6711242093882421E-015
          35   1.3567463529993897E-015
          36 -0.20327521778590438     
          37   5.5053866878189243E-002
          38  0.10965036342499299     
          39   7.3862949060198534E-004
          40  0.20327521807647425     
          41  -5.5053867452741760E-002
          42  0.10965036289939395     
          43  -7.3862949165493094E-004
          44 -0.12563051409719003     
          45 -0.16111990854668726     
          46  -1.8475795891310449E-002
          47   4.5649868188972091E-004
          48   4.7017367043138281E-010
          49   2.5211117730924785E-010
          50 -0.18234955116905047     
          51  -1.7076872519112091E-012
          52  0.12563051333648179     
          53  0.16111990886912733     
          54  -1.8475795357729110E-002
          55  -4.5649867913516391E-004
          56 -0.16733550400001043     
          57  0.16733550423927090     
          58 -0.10341948966480069     
          59   3.8705685780118656E-010
          60  0.10341948903861850     
Sym=     9a
Ene=  -0.53266936925509445     
Spin= Alpha
Occup=     2.00000000
           1  -6.6228041440976562E-002
           2 -0.13037321760625334     
           3  0.11906167315744361     
           4   4.3414145411026570E-004
           5  -6.6228040582038794E-002
           6 -0.13037321737303253     
           7 -0.11906167361959626     
           8   4.3414144847351617E-004
           9  0.17338884332323998     
          10   7.2942480050711841E-002
          11 -0.12141345649140466     
          12  -1.1367447971533471E-003
          13 -0.21431810628825684     
          14  0.11486043272084515     
          15   3.8309002386001838E-010
          16   1.4050893500314840E-003
          17  0.17338884385397957     
          18   7.2942479373233185E-002