22
step=0 target=0.00deg measured=0.00deg E=-19303.7422kcal/mol converged=True
C        3.55661532      0.00024407      0.00016655
C        2.85130788     -0.72400928     -0.94452986
C        2.85106332      0.72436682      0.94482767
C       -2.85132562      0.72500541      0.94347131
C        1.46989812     -0.72411284     -0.94462172
C        1.46962458      0.72418656      0.94467658
C       -3.55660230      0.00103847     -0.00169563
C       -1.46992301      0.72435649      0.94403760
C        0.73769127     -0.00002621     -0.00002686
C       -2.85095820     -0.72329264     -0.94598054
C       -0.73766397      0.00022231     -0.00035131
C       -1.46957378     -0.72373703     -0.94542387
H        4.63700805      0.00035423      0.00020309
H        3.37532920     -1.29846848     -1.69396014
H        3.37493278      1.29893944      1.69425463
H       -3.37543051      1.29963605      1.69262594
H        0.97017808     -1.30550556     -1.70299091
H        0.96962749      1.30545534      1.70294331
H       -4.63696303      0.00143646     -0.00212417
H       -0.97023284      1.30548428      1.70268843
H       -3.37478457     -1.29760487     -1.69572177
H       -0.96951525     -1.30509805     -1.70353870
22
step=1 target=15.00deg measured=15.00deg E=-19304.6176kcal/mol converged=True
C        3.54656188      0.00032067      0.00027209
C        2.84619865     -0.72554604     -0.94617175
C        2.84587082      0.72565145      0.94647660
C       -2.84607853      0.94650957      0.72492985
C        1.46457182     -0.71870444     -0.95125983
C        1.46427004      0.71694332      0.95273574
C       -3.54657646      0.00083320     -0.00176842
C       -1.46447240      0.95206170      0.71730223
C        0.73730137      0.00323302     -0.00271231
C       -2.84593534     -0.94500718     -0.72778300
C       -0.73727485     -0.00234662      0.00284964
C       -1.46430667     -0.95017579     -0.72063862
H        4.62593894      0.00037462      0.00024284
H        3.38429796     -1.29408495     -1.69004141
H        3.38387312      1.29462896      1.69013799
H       -3.38418890      1.68946177      1.29460832
H        0.95080928     -1.27714351     -1.71743363
H        0.95049875      1.27733381      1.71748055
H       -4.62585908      0.00121083     -0.00225108
H       -0.95074417      1.71631418      1.27849940
H       -3.38392643     -1.68810047     -1.29760542
H       -0.95052690     -1.71603933     -1.27930179
22
step=2 target=30.00deg measured=30.00deg E=-19305.9285kcal/mol converged=True
C        3.54596424      0.00026719      0.00002452
C        2.84494832     -0.72417706     -0.94874395
C        2.84478917      0.72424627      0.94924418
C       -2.84656366      1.10079706      0.45117595
C        1.46096029     -0.72306511     -0.95117125
C        1.46078065      0.72357813      0.95092254
C       -3.54591570     -0.00352855     -0.00466395
C       -1.46255322      1.10383887      0.45188306
C        0.73847925      0.00201669     -0.00144870
C       -2.84311815     -1.10641660     -0.45903816
C       -0.73846061     -0.00173620      0.00122479
C       -1.45913311     -1.10701923     -0.45524240
H        4.62710024      0.00046505      0.00019450
H        3.38189347     -1.29565140     -1.69296593
H        3.38146536      1.29565479      1.69365489
H       -3.38468383      1.96687365      0.81045334
H        0.94186999     -1.27650847     -1.72046742
H        0.94130375      1.27604315      1.72069086
H       -4.62709681     -0.00458054     -0.00622047
H       -0.94448644      1.99047600      0.78807874
H       -3.37858955     -1.97341392     -0.81990504
H       -0.93861198     -1.99246447     -0.79095769
22
step=3 target=45.00deg measured=45.00deg E=-19306.3880kcal/mol converged=True
C        3.52770474      0.00064468     -0.00002674
C        2.83118370     -0.72654398     -0.95093732
C        2.83070659      0.72805433      0.95050242
C       -2.83330789      1.18153190      0.15167536
C        1.44828013     -0.72751174     -0.95068215
C        1.44770431      0.72793763      0.95034895
C       -3.52764374     -0.00651278     -0.00525968
C       -1.45030748      1.18410704      0.15429259
C        0.73631583      0.00020379     -0.00028719
C       -2.82851523     -1.19219875     -0.15939803
C       -0.73627656     -0.00149587     -0.00094298
C       -1.44561039     -1.18958304     -0.15834222
H        4.60811992      0.00016646      0.00030763
H        3.37066702     -1.29162637     -1.69757024
H        3.37024517      1.29083321      1.69883816
H       -3.37476912      2.10988636      0.26514949
H        0.90425351     -1.28002720     -1.70282773
H        0.90369340      1.28006758      1.70280771
H       -4.60806278     -0.00850317     -0.00774872
H       -0.90823267      2.11273447      0.25783967
H       -3.36608159     -2.12216270     -0.27745868
H       -0.89968252     -2.11613127     -0.26063213
22
step=4 target=60.00deg measured=60.00deg E=-19305.7680kcal/mol converged=True
C        3.52701890      0.00065377     -0.00003659
C        2.83095298     -0.72618023     -0.95116786
C        2.83051446      0.72738561      0.95084859
C       -2.83293707      1.18071640     -0.16102270
C        1.44738851     -0.72777853     -0.95069591
C        1.44686367      0.72841112      0.95029687
C       -3.52697051     -0.00727112     -0.00467289
C       -1.44929880      1.18418369     -0.15777642
C        0.73912300      0.00013517     -0.00022127
C       -2.82845584     -1.19233575      0.15387720
C       -0.73908625     -0.00148179     -0.00104868
C       -1.44489001     -1.19002552      0.15417596
H        4.60761373      0.00020952      0.00031987
H        3.37018180     -1.29175463     -1.69761149
H        3.36968703      1.29109840      1.69877963
H       -3.37397174      2.10714511     -0.29099813
H        0.90417470     -1.28123771     -1.70290846
H        0.90356509      1.28126449      1.70287838
H       -4.60755630     -0.00970945     -0.00689137
H       -0.90786001      2.10859461     -0.29742230
H       -3.36583091     -2.12139991      0.27996646
H       -0.89983744     -2.11219072      0.29465394
22
step=5 target=75.00deg measured=75.00deg E=-19304.9630kcal/mol converged=True
C        3.52664416      0.00063978     -0.00003774
C        2.83106660     -0.72603443     -0.95125602
C        2.83063247      0.72714726      0.95098963
C       -2.83279106      1.09912826     -0.46239969
C        1.44689490     -0.72749718     -0.95080954
C        1.44637671      0.72808277      0.95045311
C       -3.52659778     -0.00771473     -0.00390142
C       -1.44854722      1.10308185     -0.45984585
C        0.74089687      0.00024164     -0.00036915
C       -2.82883403     -1.11135842      0.45631242
C       -0.74086213     -0.00147865     -0.00086914
C       -1.44466091     -1.10908543      0.45654729
H        4.60733506      0.00022836      0.00032356
H        3.36993699     -1.29182460     -1.69760813
H        3.36941455      1.29122864      1.69873007
H       -3.37324176      1.96061820     -0.82756255
H        0.90405659     -1.28188988     -1.70279676
H        0.90343111      1.28191664      1.70276170
H       -4.60727990     -0.01051115     -0.00572147
H       -0.90726582      1.96051787     -0.83307105
H       -3.36604035     -1.97620679      0.81824097
H       -0.90017521     -1.96423214      0.83039188
22
step=6 target=90.00deg measured=90.00deg E=-19304.6605kcal/mol converged=True
C        3.52521934      0.00053175     -0.00004947
C        2.83072235     -0.72554988     -0.95214236
C        2.83015253      0.72617514      0.95221644
C       -2.83201336      0.94172178     -0.73354916
C        1.44669358     -0.72495622     -0.95460627
C        1.44621525      0.72399782      0.95481226
C       -3.52518100     -0.00823420     -0.00308029
C       -1.44807927      0.94380143     -0.73566087
C        0.74189201      0.00231152     -0.00236839
C       -2.82878766     -0.95491020      0.72824933
C       -0.74186931     -0.00004349      0.00159374
C       -1.44476101     -0.95143381      0.73179993
H        4.60565276      0.00034487      0.00032770
H        3.36875477     -1.29258325     -1.69756460
H        3.36809402      1.29226959      1.69847466
H       -3.37144623      1.68084228     -1.30753243
H        0.90332131     -1.28532470     -1.70173992
H        0.90261848      1.28522986      1.70162195
H       -4.60561008     -0.01116961     -0.00437276
H       -0.90597029      1.68120944     -1.31060189
H       -3.36532188     -1.69749482      1.30039720
H       -0.89990433     -1.68526586      1.30808151
22
step=7 target=105.00deg measured=105.00deg E=-19305.0213kcal/mol converged=True
C        3.52529569      0.00055391     -0.00000553
C        2.83023794     -0.72550912     -0.95235593
C        2.82975587      0.72601514      0.95244426
C       -2.83184862      0.71764382     -0.95314548
C        1.44667244     -0.72448094     -0.95475736
C        1.44625939      0.72346202      0.95512128
C       -3.52524884     -0.01121812     -0.00173040
C       -1.44835489      0.71976617     -0.95535733
C        0.74048951      0.00262276     -0.00254902
C       -2.82805612     -0.73581338      0.95017481
C       -0.74046689      0.00027237      0.00177072
C       -1.44449927     -0.73007905      0.95307850
H        4.60551335      0.00036686      0.00031606
H        3.36878002     -1.29278077     -1.69763214
H        3.36809473      1.29243768      1.69855433
H       -3.37185981      1.28295398     -1.69888840
H        0.90321312     -1.28558537     -1.70172966
H        0.90255728      1.28534334      1.70151896
H       -4.60545920     -0.01518962     -0.00251289
H       -0.90632098      1.28429006     -1.70097792
H       -3.36491765     -1.30565574      1.69470138
H       -0.89937954     -1.29007996      1.69966915
22
step=8 target=120.00deg measured=120.00deg E=-19305.8458kcal/mol converged=True
C        3.52408130      0.00044755     -0.00005475
C        2.82835759     -0.72468061     -0.95310619
C        2.82827782      0.72452516      0.95376333
C       -2.83038972      0.44256463     -1.10782130
C        1.44478155     -0.72116494     -0.95685915
C        1.44503348      0.71889874      0.95812714
C       -3.52402212     -0.01406561      0.00058419
C       -1.44713640      0.44178025     -1.11090894
C        0.73754095      0.00542025     -0.00426749
C       -2.82613610     -0.46594503      1.10824366
C       -0.73752740      0.00340181      0.00268791
C       -1.44258389     -0.45582096      1.11063135
H        4.60466497      0.00052658      0.00018669
H        3.36799028     -1.29369434     -1.69722434
H        3.36735765      1.29306643      1.69846471
H       -3.37115507      0.79760713     -1.97381467
H        0.90313076     -1.28743437     -1.70113602
H        0.90262296      1.28651808      1.70088721
H       -4.60459590     -0.01869384      0.00052283
H       -0.90641995      0.80097917     -1.97502496
H       -3.36407369     -0.82610361      1.97403962
H       -0.89925780     -0.80874230      1.97563719
22
step=9 target=135.00deg measured=135.00deg E=-19306.3929kcal/mol converged=True
C        3.52377481      0.00042182     -0.00005079
C        2.82813818     -0.72452236     -0.95337910
C        2.82823163      0.72415287      0.95421658
C       -2.83028364      0.13698432     -1.18425687
C        1.44519264     -0.72125140     -0.95715876
C        1.44560796      0.71934882      0.95837790
C       -3.52369189     -0.01756747      0.00464684
C       -1.44765489      0.13798395     -1.18700336
C        0.73574142      0.00569250     -0.00417985
C       -2.82593387     -0.16619056      1.19180042
C       -0.73572971      0.00359497      0.00247203
C       -1.44302468     -0.15424397      1.19190144
H        4.60422129      0.00055983      0.00011018
H        3.36751300     -1.29372170     -1.69694484
H        3.36700788      1.29291882      1.69839309
H       -3.37071859      0.25557009     -2.11239471
H        0.90367710     -1.28820329     -1.70081295
H        0.90325400      1.28716675      1.70070272
H       -4.60412245     -0.02332735      0.00561958
H       -0.90697434      0.26237422     -2.11425934
H       -3.36363272     -0.29110840      2.12082162
H       -0.89985958     -0.27147671      2.11868178
22
step=10 target=150.00deg measured=150.00deg E=-19305.9551kcal/mol converged=True
C        3.53499855      0.00059078      0.00034356
C        2.83521590     -0.72348054     -0.95072169
C        2.83578995      0.72536909      0.95112801
C       -2.83741335     -0.17427717     -1.17747448
C        1.45310484     -0.72512020     -0.95051815
C        1.45356693      0.72881375      0.95090171
C       -3.53486937     -0.01990953      0.00913306
C       -1.45524104     -0.16345297     -1.18275952
C        0.73530512      0.00137646      0.00069087
C       -2.83341447      0.14358288      1.19213486
C       -0.73525861     -0.00294689      0.00202706
C       -1.45132007      0.15065468      1.19015579
H        4.61572766     -0.00042340      0.00000154
H        3.36822255     -1.29470892     -1.69739502
H        3.37012464      1.29159949      1.70070797
H       -3.37305233     -0.30610937     -2.10681555
H        0.92883703     -1.31860060     -1.68614156
H        0.93040395      1.32088342      1.68834438
H       -4.61561372     -0.02688471      0.01250224
H       -0.93360645     -0.26209043     -2.12417201
H       -3.36505327      0.26364136      2.12535008
H       -0.92552564      0.25338020      2.12888316
22
step=11 target=165.00deg measured=165.00deg E=-19304.6257kcal/mol converged=True
C        3.54846459      0.00020742      0.00048525
C        2.84663336     -0.72412770     -0.94697440
C        2.84625089      0.72792310      0.94497126
C       -2.84697812     -0.46784025     -1.09351124
C        1.46488434     -0.73076490     -0.94174020
C        1.46439505      0.73316703      0.94107282
C       -3.54834970     -0.01874748      0.01154303
C       -1.46520469     -0.45429471     -1.10022676
C        0.73724548     -0.00703290      0.00586853
C       -2.84574663      0.44238710      1.11088949
C       -0.73714340     -0.01174810      0.00670813
C       -1.46397085      0.44206677      1.10989524
H        4.62799461     -0.00107540      0.00148594
H        3.37685515     -1.29438207     -1.69603387
H        3.37688009      1.29699751      1.69460310
H       -3.37817550     -0.83449869     -1.95996656
H        0.95765284     -1.33087304     -1.68137124
H        0.95824612      1.33429782      1.68056462
H       -4.62785810     -0.02630517      0.01540302
H       -0.95988469     -0.79036650     -1.99247210
H       -3.37536232      0.80219753      1.98121451
H       -0.95591577      0.78456742      1.99817522
22
step=12 target=180.00deg measured=180.00deg E=-19303.6877kcal/mol converged=True
C        3.54840917      0.00038009      0.00011126
C        2.84713463     -0.72486849     -0.94675021
C        2.84679458      0.72808130      0.94508774
C       -2.84658942     -0.73767287     -0.93986391
C        1.46662932     -0.73085521     -0.94078116
C        1.46618980      0.73311052      0.93987721
C       -3.54831742     -0.01760246      0.01084232
C       -1.46605706     -0.72476529     -0.94818741
C        0.73656469     -0.00780549      0.00598069
C       -2.84718266      0.71175030      0.95463726
C       -0.73645489     -0.01204396      0.00742850
C       -1.46663219      0.71097329      0.95414852
H        4.62847387     -0.00103420      0.00151816
H        3.37786841     -1.29445284     -1.69574687
H        3.37774852      1.29812651      1.69369646
H       -3.37737057     -1.31498689     -1.68299581
H        0.96087054     -1.32816804     -1.68150309
H        0.96105140      1.33132947      1.68071027
H       -4.62833477     -0.02456277      0.01568338
H       -0.96097032     -1.28225134     -1.72016542
H       -3.37806914      1.28452953      1.70113820
H       -0.96084884      1.27360672      1.72148591
22
step=13 target=195.00deg measured=195.00deg E=-19304.6009kcal/mol converged=True
C        3.54973529      0.00091031     -0.00082531
C        2.84905314     -0.72889802     -0.94442832
C        2.84829603      0.72949585      0.94313220
C       -2.84731545     -0.95692927     -0.72264163
C        1.46710273     -0.72545141     -0.94585748
C        1.46640006      0.71382570      0.95232081
C       -3.54964277     -0.01653632      0.00968448
C       -1.46535060     -0.96064272     -0.71237776
C        0.73768398     -0.00265626      0.00062285
C       -2.84985553      0.92917870      0.73761708
C       -0.73761982     -0.00678081      0.00222819
C       -1.46794378      0.93605452      0.72886786
H        4.62933369      0.00117121     -0.00015631
H        3.38472491     -1.29665607     -1.69186537
H        3.38238803      1.30939765      1.68245722
H       -3.38072820     -1.69775106     -1.30124708
H        0.95727913     -1.27367069     -1.72126221
H        0.95455242      1.26963903      1.72085496
H       -4.62922233     -0.02148931      0.01366290
H       -0.95264725     -1.72658796     -1.27097181
H       -3.38626517      1.67390568      1.30822755
H       -0.95903921      1.71296582      1.27582260
22
step=14 target=210.00deg measured=210.00deg E=-19305.9961kcal/mol converged=True
C        3.53477556      0.00103233     -0.00053913
C        2.83688053     -0.72639586     -0.95027433
C        2.83534863      0.72679117      0.94943343
C       -2.83361749     -1.11829982     -0.44929728
C        1.45461072     -0.72392490     -0.95278015
C        1.45282846      0.72241323      0.95229005
C       -3.53468208     -0.01555623      0.00987993
C       -1.45109569     -1.11554106     -0.44997754
C        0.73548407      0.00132906     -0.00269216
C       -2.83843914      1.09184984      0.46494818
C       -0.73544368     -0.00463421     -0.00248563
C       -1.45620524      1.09803956      0.45624028
H        4.61602423      0.00466937     -0.00254577
H        3.37573719     -1.29728256     -1.69346444
H        3.37358178      1.29784496      1.69311541
H       -3.37055948     -1.98578936     -0.80706569
H        0.92456658     -1.27565010     -1.71460708
H        0.92265880      1.26791990      1.71878844
H       -4.61593300     -0.01801821      0.01031716
H       -0.91946806     -1.99506477     -0.78162075
H       -3.37856357      1.95540031      0.82711119
H       -0.92758679      1.97806274      0.79068103
22
step=15 target=225.00deg measured=225.00deg E=-19306.3991kcal/mol converged=True
C        3.52537210      0.00398342     -0.00274631
C        2.82978542     -0.72588611     -0.95263403
C        2.82794661      0.72727154      0.95068036
C       -2.82586598     -1.19767542     -0.14779683
C        1.44678964     -0.73237351     -0.95180145
C        1.44524559      0.72709457      0.95158927
C       -3.52530743     -0.01201304      0.00568946
C       -1.44317164     -1.19533947     -0.15245569
C        0.73637275     -0.00393849      0.00055240
C       -2.83171841      1.17691117      0.16139439
C       -0.73629462     -0.00482607      0.00374512
C       -1.44871605      1.18244885      0.16222957
H        4.60581701      0.00315856     -0.00078152
H        3.36904712     -1.29295381     -1.69763767
H        3.36546935      1.29235876      1.69823043
H       -3.36179347     -2.12867218     -0.26237584
H        0.90608228     -1.28438818     -1.70887132
H        0.90295925      1.27906599      1.70726106
H       -4.60573621     -0.01565777      0.01142229
H       -0.89924580     -2.12447912     -0.25556653
H       -3.37256240      2.10433546      0.28294379
H       -0.90967197      2.11517721      0.26067600
22
step=16 target=240.00deg measured=240.00deg E=-19305.7722kcal/mol converged=True
C        3.52466286      0.00326928     -0.00229951
C        2.82956549     -0.72579979     -0.95262247
C        2.82790970      0.72720847      0.95062947
C       -2.82514799     -1.19738786      0.16592248
C        1.44592203     -0.73157305     -0.95150010
C        1.44449584      0.72678309      0.95121602
C       -3.52459043     -0.01269735      0.00806949
C       -1.44174405     -1.19512488      0.16091018
C        0.73869502     -0.00363045      0.00040619
C       -2.83217500      1.17615743     -0.15005750
C       -0.73862292     -0.00494891      0.00341780
C       -1.44852916      1.18182232     -0.15086760
H        4.60528099      0.00335029     -0.00098839
H        3.36890722     -1.29285321     -1.69785964
H        3.36542439      1.29258604      1.69831591
H       -3.36053569     -2.12692360      0.29606867
H        0.90607817     -1.28491393     -1.70742897
H        0.90289709      1.27945076      1.70617775
H       -4.60519401     -0.01553951      0.01336497
H       -0.89798234     -2.11896817      0.30081873
H       -3.37362563      2.10328145     -0.27290541
H       -0.91086671      2.10868706     -0.29539828
22
step=17 target=255.00deg measured=255.00deg E=-19304.9834kcal/mol converged=True
C        3.52318419      0.00150909     -0.00101875
C        2.82956657     -0.72574623     -0.95298883
C        2.82814652      0.72676795      0.95141957
C       -2.82483613     -1.11588319      0.46955470
C        1.44608977     -0.72863428     -0.95322015
C        1.44466194      0.72469971      0.95314222
C       -3.52310030     -0.01190493      0.01143681
C       -1.44135760     -1.11335098      0.46622158
C        0.74065011     -0.00157864     -0.00086874
C       -2.83271969      1.09516066     -0.45119801
C       -0.74059268     -0.00610073      0.00127849
C       -1.44925386      1.09937611     -0.45583068
H        4.60321771      0.00377278     -0.00163147
H        3.36797870     -1.29256759     -1.69828535
H        3.36492333      1.29340484      1.69804878
H       -3.35906536     -1.98090314      0.83424119
H        0.90427968     -1.28820613     -1.70212434
H        0.90111442      1.28236683      1.70209671
H       -4.60312729     -0.01479922      0.01437139
H       -0.89525468     -1.97053318      0.83279802
H       -3.37366054      1.95842490     -0.81008058
H       -0.91000599      1.95942240     -0.82605870
22
step=18 target=270.00deg measured=270.00deg E=-19304.6611kcal/mol converged=True
C        3.52318419      0.00150909     -0.00101875
C        2.82956657     -0.72574623     -0.95298883
C        2.82814652      0.72676795      0.95141957
C       -2.82492753     -0.95786937      0.73928606
C        1.44608977     -0.72863428     -0.95322015
C        1.44466194      0.72469971      0.95314222
C       -3.52310617     -0.01041141      0.01053175
C       -1.44144743     -0.95562314      0.73643595
C        0.74065011     -0.00157864     -0.00086874
C       -2.83263762      0.93952507     -0.72235599
C       -0.74059268     -0.00610073      0.00127849
C       -1.44916959      0.94306084     -0.72689704
H        4.60321771      0.00377278     -0.00163147
H        3.36797870     -1.29256759     -1.69828535
H        3.36492333      1.29340484      1.69804878
H       -3.35922816     -1.69928354      1.31503295
H        0.90427968     -1.28820613     -1.70212434
H        0.90111442      1.28236683      1.70209671
H       -4.60313442     -0.01296512      0.01331541
H       -0.89542004     -1.68845977      1.31278010
H       -3.37351105      1.68023029     -1.29283874
H       -0.90984431      1.67823899     -1.30670563
22
step=19 target=285.00deg measured=285.00deg E=-19305.0336kcal/mol converged=True
C        3.52317263      0.00186066     -0.00102748
C        2.82896254     -0.72552418     -0.95315398
C        2.82736111      0.72596482      0.95207320
C       -2.82450451     -0.73461588      0.95958682
C        1.44506533     -0.72453594     -0.95567790
C        1.44329550      0.71979495      0.95662220
C       -3.52310104     -0.00956243      0.00925132
C       -1.44043082     -0.72844869      0.96009815
C        0.73952688      0.00086193     -0.00249450
C       -2.83167855      0.71879332     -0.94416436
C       -0.73946955     -0.00852190     -0.00033077
C       -1.44779431      0.71781074     -0.95072975
H        4.60367432      0.00363556     -0.00163014
H        3.36801880     -1.29324699     -1.69842643
H        3.36506643      1.29417910      1.69795186
H       -3.36001798     -1.30359928      1.70646107
H        0.90318355     -1.28970777     -1.70107193
H        0.90016204      1.28386142      1.70140000
H       -4.60360041     -0.01133126      0.01182395
H       -0.89511405     -1.29326184      1.70270592
H       -3.37292226      1.28725225     -1.68728432
H       -0.90810391      1.28373733     -1.69714595
22
step=20 target=300.00deg measured=300.00deg E=-19305.8481kcal/mol converged=True
C        3.52297646      0.00180145     -0.00107175
C        2.82874284     -0.72525544     -0.95357050
C        2.82701098      0.72566688      0.95258763
C       -2.82565520     -0.46225990      1.11190418
C        1.44549851     -0.72404957     -0.95661201
C        1.44364980      0.71926834      0.95745553
C       -3.52291684     -0.00866084      0.00470443
C       -1.44229005     -0.45503575      1.11325060
C        0.73788115      0.00128768     -0.00283936
C       -2.82997942      0.44812002     -1.10390470
C       -0.73782514     -0.00901996     -0.00055879
C       -1.44673935      0.44595883     -1.10823827
H        4.60337841      0.00365441     -0.00162218
H        3.36775829     -1.29329728     -1.69811919
H        3.36480252      1.29415129      1.69771838
H       -3.36242811     -0.81932307      1.97908006
H        0.90310924     -1.28986726     -1.70080469
H        0.90001025      1.28402701      1.70141311
H       -4.60331855     -0.01040549      0.00599522
H       -0.89763496     -0.80896834      1.97699458
H       -3.37001270      0.80505746     -1.96907760
H       -0.90536767      0.80067059     -1.97383232
22
step=21 target=315.00deg measured=315.00deg E=-19306.3933kcal/mol converged=True
C        3.52282984      0.00180692     -0.00104965
C        2.82840718     -0.72488830     -0.95395117
C        2.82660336      0.72525517      0.95299815
C       -2.82723956     -0.15966972      1.18778770
C        1.44579208     -0.72345307     -0.95703945
C        1.44383186      0.71882584      0.95779051
C       -3.52277518     -0.00907390     -0.00043399
C       -1.44447022     -0.15146838      1.18956679
C        0.73552586      0.00156692     -0.00311594
C       -2.82766208      0.14514097     -1.18844168
C       -0.73547018     -0.00940797     -0.00065729
C       -1.44504547      0.14259491     -1.18956595
H        4.60313753      0.00367174     -0.00160860
H        3.36765052     -1.29346004     -1.69797266
H        3.36466207      1.29419530      1.69764299
H       -3.36583525     -0.28110967      2.11669258
H        0.90388139     -1.29076643     -1.70030151
H        0.90076374      1.28485372      1.70108251
H       -4.60308272     -0.01113785     -0.00063374
H       -0.90193828     -0.27088018      2.11649334
H       -3.36636905      0.26637825     -2.11726935
H       -0.90259900      0.26329953     -2.11646027
22
step=22 target=330.00deg measured=330.00deg E=-19305.9872kcal/mol converged=True
C        3.53761309      0.00212210     -0.00074352
C        2.83956270     -0.72589378     -0.94963261
C        2.83701352      0.72684964      0.94861211
C       -2.83999035      0.14736417      1.18037743
C        1.45712007     -0.73282017     -0.94592358
C        1.45455296      0.72918061      0.94440518
C       -3.53755510     -0.01099657     -0.00541235
C       -1.45750467      0.14415995      1.18221180
C        0.73618560     -0.00486355      0.00051622
C       -2.83646969     -0.16523836     -1.18945527
C       -0.73613738     -0.00219572     -0.00254519
C       -1.45402657     -0.15625228     -1.18853501
H        4.61816843      0.00364253     -0.00032884
H        3.37581363     -1.29353137     -1.69701823
H        3.37117438      1.29478584      1.69735891
H       -3.37656779      0.27371627      2.11015440
H        0.93217064     -1.32885894     -1.67708886
H        0.92747005      1.32242368      1.67624369
H       -4.61811896     -0.01284320     -0.00663151
H       -0.93281638      0.24169187      2.12067687
H       -3.37031726     -0.29191881     -2.12078981
H       -0.92672054     -0.25035514     -2.12578717
22
step=23 target=345.00deg measured=345.00deg E=-19304.6557kcal/mol converged=True
C        3.54547826      0.00091636      0.00006191
C        2.84536428     -0.72824674     -0.94505647
C        2.84297660      0.72815457      0.94484343
C       -2.84520758      0.44575855      1.10131615
C        1.46347743     -0.73736470     -0.94025624
C        1.46108745      0.73312150      0.93935626
C       -3.54542798     -0.00841862     -0.00256954
C       -1.46331227      0.43987828      1.10515734
C        0.73670564     -0.00763617      0.00286934
C       -2.84303286     -0.46048228     -1.10585700
C       -0.73666376      0.00109023     -0.00379210
C       -1.46114618     -0.45038797     -1.10903669
H        4.62521240      0.00351966     -0.00055294
H        3.37756947     -1.29715649     -1.69391619
H        3.37307102      1.30100474      1.69222058
H       -3.37710123      0.80511770      1.97058709
H        0.95762289     -1.34198939     -1.67729445
H        0.95290294      1.33722494      1.67526714
H       -4.62516374     -0.01135037     -0.00234225
H       -0.95695801      0.77476513      1.99750917
H       -3.37342036     -0.82424046     -1.97423696
H       -0.95344690     -0.78490867     -2.00065028
