[Molden Format]
[Title]
[Atoms] AU
C      1     6 -0.22924267617771E+01 -0.13008874641887E+01  0.00000000000000E+00
C      2     6 -0.22729625826935E+01  0.13349025344319E+01  0.18897261246204E-03
C      3     6 -0.19464179083591E-01 -0.26357899986206E+01  0.00000000000000E+00
C      4     6  0.19653151696053E-01  0.26357899986206E+01 -0.18897261246204E-03
C      5     6  0.22729625826935E+01 -0.13347135618194E+01  0.00000000000000E+00
C      6     6  0.22924267617771E+01  0.13008874641887E+01  0.00000000000000E+00
H      7     1 -0.40774620590935E+01 -0.23137806669853E+01  0.00000000000000E+00
H      8     1 -0.40426910984005E+01  0.23742519029731E+01  0.18897261246204E-03
H      9     1 -0.34770960693016E-01 -0.46882215425709E+01 -0.18897261246204E-03
H     10     1  0.34770960693016E-01  0.46880325699584E+01  0.00000000000000E+00
H     11     1  0.40428800710130E+01 -0.23740629303607E+01  0.18897261246204E-03
H     12     1  0.40774620590935E+01  0.23139696395977E+01  0.00000000000000E+00
[GTO]
           1 0
 s           4   1.0000000000000000     
   51.049363095579913      -0.16312063210127389     
   8.7911227406887544      -0.19911024581000730     
  0.70640422258929825       0.31882047753655751     
  0.26922813413411617       0.12706504184240380     
 p           4   1.0000000000000000     
   5.8263656140800002       0.73716451545209605     
   1.5106896018720002       0.68216371614850257     
  0.53256483288000001       0.35783053929253711     
  0.21202323690600003        5.3983030275847881E-002

           2 0
 s           4   1.0000000000000000     
   51.049363095579913      -0.16312063210127389     
   8.7911227406887544      -0.19911024581000730     
  0.70640422258929825       0.31882047753655751     
  0.26922813413411617       0.12706504184240380     
 p           4   1.0000000000000000     
   5.8263656140800002       0.73716451545209605     
   1.5106896018720002       0.68216371614850257     
  0.53256483288000001       0.35783053929253711     
  0.21202323690600003        5.3983030275847881E-002

           3 0
 s           4   1.0000000000000000     
   51.049363095579913      -0.16312063210127389     
   8.7911227406887544      -0.19911024581000730     
  0.70640422258929825       0.31882047753655751     
  0.26922813413411617       0.12706504184240380     
 p           4   1.0000000000000000     
   5.8263656140800002       0.73716451545209605     
   1.5106896018720002       0.68216371614850257     
  0.53256483288000001       0.35783053929253711     
  0.21202323690600003        5.3983030275847881E-002

           4 0
 s           4   1.0000000000000000     
   51.049363095579913      -0.16312063210127389     
   8.7911227406887544      -0.19911024581000730     
  0.70640422258929825       0.31882047753655751     
  0.26922813413411617       0.12706504184240380     
 p           4   1.0000000000000000     
   5.8263656140800002       0.73716451545209605     
   1.5106896018720002       0.68216371614850257     
  0.53256483288000001       0.35783053929253711     
  0.21202323690600003        5.3983030275847881E-002

           5 0
 s           4   1.0000000000000000     
   51.049363095579913      -0.16312063210127389     
   8.7911227406887544      -0.19911024581000730     
  0.70640422258929825       0.31882047753655751     
  0.26922813413411617       0.12706504184240380     
 p           4   1.0000000000000000     
   5.8263656140800002       0.73716451545209605     
   1.5106896018720002       0.68216371614850257     
  0.53256483288000001       0.35783053929253711     
  0.21202323690600003        5.3983030275847881E-002

           6 0
 s           4   1.0000000000000000     
   51.049363095579913      -0.16312063210127389     
   8.7911227406887544      -0.19911024581000730     
  0.70640422258929825       0.31882047753655751     
  0.26922813413411617       0.12706504184240380     
 p           4   1.0000000000000000     
   5.8263656140800002       0.73716451545209605     
   1.5106896018720002       0.68216371614850257     
  0.53256483288000001       0.35783053929253711     
  0.21202323690600003        5.3983030275847881E-002

           7 0
 s           3   1.0000000000000000     
   3.3702276975336001       0.27359110588908298     
  0.61389118221497996       0.26460540653860526     
  0.16614291148415999        8.2465947534082318E-002

           8 0
 s           3   1.0000000000000000     
   3.3702276975336001       0.27359110588908298     
  0.61389118221497996       0.26460540653860526     
  0.16614291148415999        8.2465947534082318E-002

           9 0
 s           3   1.0000000000000000     
   3.3702276975336001       0.27359110588908298     
  0.61389118221497996       0.26460540653860526     
  0.16614291148415999        8.2465947534082318E-002

          10 0
 s           3   1.0000000000000000     
   3.3702276975336001       0.27359110588908298     
  0.61389118221497996       0.26460540653860526     
  0.16614291148415999        8.2465947534082318E-002

          11 0
 s           3   1.0000000000000000     
   3.3702276975336001       0.27359110588908298     
  0.61389118221497996       0.26460540653860526     
  0.16614291148415999        8.2465947534082318E-002

          12 0
 s           3   1.0000000000000000     
   3.3702276975336001       0.27359110588908298     
  0.61389118221497996       0.26460540653860526     
  0.16614291148415999        8.2465947534082318E-002

[MO]
Sym=     1a
Ene=  -0.63876230835827896     
Spin= Alpha
Occup=     2.00000000
           1  0.27021124133903252     
           2   8.7886640298808036E-002
           3   4.9885799657015353E-002
           4   3.2258076808940441E-006
           5  0.27022992890905428     
           6   8.7154083404832411E-002
           7  -5.1170209558608730E-002
           8  -1.5328193197202759E-005
           9  0.27022902680425387     
          10   7.7530174206871057E-004
          11  0.10106888522005247     
          12  -9.8205061379207460E-008
          13  0.27029966090652363     
          14  -7.2017516527271802E-004
          15 -0.10107182848821986     
          16   1.6473227941242236E-005
          17  0.27032953456888953     
          18  -8.7144087575973472E-002
          19   5.1221695697258041E-002
          20   1.0718939171315743E-007
          21  0.27037232093101510     
          22  -8.7907762176576532E-002
          23  -4.9901262659600362E-002
          24  -2.9529523648757443E-006
          25   4.7571711217348885E-002
          26   4.7576723528276202E-002
          27   4.7567441665452147E-002
          28   4.7597032330468525E-002
          29   4.7591082790533673E-002
          30   4.7605100965126664E-002
Sym=     2a
Ene=  -0.60930296280708618     
Spin= Alpha
Occup=     2.00000000
           1  0.33257113311645964     
           2  -1.8797066559490341E-002
           3   7.9710886715566170E-002
           4   6.8768914018296135E-006
           5  0.32566311580099544     
           6  -2.2973552498778669E-002
           7  -8.3593091312110887E-002
           8  -1.3942250698259513E-005
           9   7.0031904134477572E-003
          10 -0.16229859701226348     
          11   1.6930604872239827E-003
          12   1.1694085316420189E-006
          13  -6.8592107324775753E-003
          14 -0.16232944238963318     
          15   1.6754875969995536E-003
          16   3.7133437556342046E-006
          17 -0.32555053478109419     
          18  -2.3032175983843849E-002
          19  -8.3615314148538220E-002
          20  -6.0488057544503023E-007
          21 -0.33250657425040692     
          22  -1.8851051738686082E-002
          23   7.9706369439901364E-002
          24   4.0340859904192706E-006
          25  0.10540612229912905     
          26  0.10321540112458186     
          27   2.2203772203373598E-003
          28  -2.1716370422388540E-003
          29 -0.10317849920744400     
          30 -0.10539154503588390     
Sym=     3a
Ene=  -0.60929603391981424     
Spin= Alpha
Occup=     2.00000000
           1  0.18399916795072804     
           2   8.1170907021552996E-002
           3 -0.11726356156956010     
           4   2.7250233720939045E-007
           5 -0.19593624326698786     
           6  -8.2109046112929088E-002
           7 -0.11308953591155511     
           8   1.2461589489347104E-005
           9  0.37999181935675025     
          10   3.1707244073522468E-003
          11   2.6246922652636517E-002
          12  -1.6402988248268007E-006
          13 -0.37997309749271496     
          14   3.1339094971118476E-003
          15   2.6196566830306207E-002
          16  -2.1380833673291718E-005
          17  0.19604189518766338     
          18  -8.2120337635402066E-002
          19 -0.11309509507444211     
          20   1.5411993183987677E-006
          21 -0.18397009661894051     
          22   8.1167484062231343E-002
          23 -0.11732971828691112     
          24   4.8524663110062045E-006
          25   5.8317001766768566E-002
          26  -6.2109835967560846E-002
          27  0.12042903214981573     
          28 -0.12046198179098735     
          29   6.2131851921086757E-002
          30  -5.8320581185304615E-002
Sym=     4a
Ene=  -0.56735517309183947     
Spin= Alpha
Occup=     2.00000000
           1  0.11619308762708916     
           2 -0.14720208815136082     
           3  0.18802506459081025     
           4   1.3792062276186199E-005
           5  0.17957275905140346     
           6 -0.15056047015448154     
           7 -0.14894548981256595     
           8   3.6880459873447218E-006
           9 -0.29578208213045376     
          10   3.2117781077355051E-002
          11   8.9319863600403587E-002
          12   9.8865153122590995E-006
          13 -0.29572292414844648     
          14  -3.2154231790560574E-002
          15  -8.9349549189851815E-002
          16  -9.2212295941489028E-006
          17  0.17948725608421484     
          18  0.15057853745067734     
          19  0.14899121857743483     
          20   7.2117902459960644E-006
          21  0.11619057986202511     
          22  0.14719453540206062     
          23 -0.18802886265488394     
          24   7.5504586572269729E-006
          25   6.6047940158150020E-002
          26  0.10204750900671002     
          27 -0.16805075054474058     
          28 -0.16805870340973841     
          29  0.10200212954669377     
          30   6.6026310770999144E-002
Sym=     5a
Ene=  -0.56734915908245698     
Spin= Alpha
Occup=     2.00000000
           1  0.27442984205753923     
           2  -2.2937291231184251E-002
           3 -0.12801824409536322     
           4   6.4671526255858761E-007
           5 -0.23783760333574699     
           6  -1.6143485808456107E-002
           7 -0.16975281112009832     
           8   1.0070071882920506E-005
           9  -3.6550408015116533E-002
          10 -0.25446033834684451     
          11   1.2951872206567265E-002
          12  -1.0013356447797893E-006
          13  -3.6590452790462483E-002
          14  0.25445392497635738     
          15  -1.2979208524745749E-002
          16  -1.1857210160005231E-005
          17 -0.23784522890665416     
          18   1.6123981615808254E-002
          19  0.16972544133688436     
          20  -6.5435559450825350E-006
          21  0.27435193317342388     
          22   2.2935094470608194E-002
          23  0.12803373646832095     
          24  -1.0944947315710473E-005
          25  0.15595134600286981     
          26 -0.13516049495211607     
          27  -2.0758298277352032E-002
          28  -2.0809166792164876E-002
          29 -0.13514794975102337     
          30  0.15591735191841594     
Sym=     6a
Ene=  -0.52938856616205943     
Spin= Alpha
Occup=     2.00000000
           1  -6.2765797066112378E-002
           2  0.19736227718759844     
           3  0.11202511900674746     
           4   2.9196882473741334E-007
           5  -6.2755943938058042E-002
           6  0.19569673219936670     
           7 -0.11492837963838044     
           8  -1.0011113714716981E-005
           9  -6.2810023023221376E-002
          10   1.6785151449577197E-003
          11  0.22693562493649952     
          12   5.0582360432320672E-006
          13  -6.2770390703299123E-002
          14  -1.6992914431582038E-003
          15 -0.22698508792161484     
          16  -4.1024634966634672E-006
          17  -6.2787645990772037E-002
          18 -0.19570700698528581     
          19  0.11493601404053407     
          20  -7.7629444688866552E-006
          21  -6.2752423100235197E-002
          22 -0.19741112843165154     
          23 -0.11201997306385024     
          24  -5.9819361610920594E-006
          25 -0.18886496579970041     
          26 -0.18886852611821497     
          27 -0.18888110049169937     
          28 -0.18890823800815709     
          29 -0.18888593821513514     
          30 -0.18888474692207913     
Sym=     7a
Ene=  -0.49487352624340397     
Spin= Alpha
Occup=     2.00000000
           1 -0.19067106468319325     
           2  0.14425729718737026     
           3   8.1871964685357901E-002
           4   2.4472126380501541E-007
           5  0.19067042175473897     
           6 -0.14310189228359488     
           7   8.4045276844533140E-002
           8   1.7628432356530987E-005
           9  0.19066752389121056     
          10  -1.2330996512594707E-003
          11 -0.16595509475946818     
          12  -2.5713706207298490E-005
          13 -0.19064117296279795     
          14  -1.1673811647999186E-003
          15 -0.16596015605859890     
          16   6.9718530092227546E-006
          17 -0.19065697909144799     
          18 -0.14306234887846239     
          19   8.4025525376281260E-002
          20  -2.7159840115260435E-005
          21  0.19065894692187599     
          22  0.14420763766462949     
          23   8.1907790082521081E-002
          24  -5.3095337974200744E-006
          25 -0.23419790153223996     
          26  0.23427535152470083     
          27  0.23426780902908767     
          28 -0.23426615431438136     
          29 -0.23421973412476754     
          30  0.23416579886792577     
Sym=     8a
Ene=  -0.48832212688921500     
Spin= Alpha
Occup=     2.00000000
           1   1.9323032274960622E-005
           2  0.16363065114917402     
           3 -0.28814717543638935     
           4  -3.2322157656594898E-005
           5   1.7435906014583292E-005
           6  0.16779959336083994     
           7  0.28570653759688497     
           8  -2.2763871900610300E-005
           9   2.2954004844657066E-005
          10 -0.33139549813554403     
          11   2.4920770727261082E-003
          12  -9.4169675934266203E-006
          13  -1.7165921037278691E-005
          14 -0.33137006816015147     
          15   2.5481900845949310E-003
          16   2.2949550744602874E-005
          17  -4.1021226120479646E-005
          18  0.16778028214174809     
          19  0.28575686533960343     
          20   9.4290470199441574E-006
          21  -6.3568014597036669E-006
          22  0.16361304423933157     
          23 -0.28817212246197316     
          24   3.2243324705467452E-005
          25  -8.0620212697787779E-005
          26   8.1666478509737233E-006
          27  -4.4803715259511293E-006
          28   8.6223565902198099E-005
          29  -4.4376902406328065E-005
          30   4.0456405697532616E-005
Sym=     9a
Ene=  -0.47564847774559810     
Spin= Alpha
Occup=     2.00000000
           1  -5.8572247194998053E-002
           2 -0.21037866037531353     
           3 -0.18867030822925379     
           4  -1.2511963726996350E-004
           5  -7.3274964444731860E-002
           6 -0.28241418995995060     
           7  0.20076366688055206     
           8  -8.9129162469528885E-005
           9   1.4640913080758006E-002
          10   9.0753488960188797E-002
          11   6.8468705708837993E-002
          12  -1.3080535278016568E-004
          13  -1.4649768672458778E-002
          14   9.0787571579990275E-002
          15   6.8474664190539464E-002
          16  -1.2577221249000645E-004
          17   7.3249138476075046E-002
          18 -0.28239290374394327     
          19  0.20072255766287198     
          20  -1.4835651973108156E-004
          21   5.8555795354009392E-002
          22 -0.21038535457311874     
          23 -0.18863032717658915     
          24  -1.3720985441984066E-004
          25  0.21659389022561731     
          26  0.27078187591826491     
          27  -5.4255903639299059E-002
          28   5.4259412329270541E-002
          29 -0.27076941560945367     
          30 -0.21659916772273619     
Sym=    10a
Ene=  -0.47564074650751437     
Spin= Alpha
Occup=     2.00000000
           1  -5.0754257896387420E-002
           2 -0.24233496901197454     
           3  -5.7696516846950416E-002
           4  -2.4256979989091638E-004
           5   2.5326871780180293E-002
           6  0.14707584394153245     
           7   1.4490328343181560E-002
           8  -2.4825832253665532E-004
           9  -7.6139795273878499E-002
          10   1.4680552252330614E-002
          11 -0.35880372383692449     
          12  -2.4838299947371712E-004
          13   7.6175514835128855E-002
          14   1.4643138058832772E-002
          15 -0.35875692183664737     
          16  -2.1794704439331402E-004
          17  -2.5318324280286981E-002
          18  0.14709285290602200     
          19   1.4470527939994239E-002
          20  -2.3030504136953349E-004
          21   5.0730636087341199E-002
          22 -0.24232579748155705     
          23  -5.7688904307731832E-002
          24  -2.3576277076826915E-004
          25  0.18768975724675122     
          26  -9.3750609293701020E-002
          27  0.28137636928724480     
          28 -0.28131415000632448     
          29   9.3782118132009637E-002
          30 -0.18769893168266089     
Sym=    11a
Ene=  -0.47180579636098430     
Spin= Alpha
Occup=     2.00000000
           1  -7.3386832318697814E-005
           2  -2.3367532811667058E-004
           3  -1.3417412512112573E-004
           4  0.34171420232188104     
           5   1.9592981080214710E-005
           6   1.9108387697166997E-005
           7   8.8749357960814717E-005
           8  0.34172292816333028     
           9  -3.3573205471602215E-005
          10   3.2289782591431812E-005
          11  -2.3286885575510473E-004
          12  0.34174100827081638     
          13   6.7215716620845196E-006
          14   6.8462416282224860E-005
          15  -2.2049093698075993E-004
          16  0.34177812418708442     
          17  -7.4150333258332177E-006
          18  -1.0877325047829215E-005
          19   8.6235031839531015E-005
          20  0.34181952729745241     
          21   7.2907975333586598E-005
          22  -2.7155344057675006E-004
          23  -9.4211230837302692E-005
          24  0.34184451357499696     
          25   2.0555969371139609E-004
          26   4.1328402114512350E-005
          27   1.6858517861210656E-004
          28  -1.7676430826887293E-004
          29  -2.6639620291278692E-005
          30  -2.1834018485470760E-004
Sym=    12a
Ene=  -0.42191397476898701     
Spin= Alpha
Occup=     2.00000000
           1  -3.5484093148920428E-004
           2  0.14907312115523144     
           3 -0.27607042980313434     
           4  -1.3365206870753395E-005
           5  -1.3230335986555434E-002
           6 -0.11880747172873261     
           7  0.25927996857398716     
           8  -5.2571227124741871E-006
           9   1.3593919087057425E-002
          10 -0.14852002457053265     
          11  0.24148207237506747     
          12   3.5842744739176266E-005
          13   1.3636963755739973E-002
          14  0.14846183712832628     
          15 -0.24148928443019016     
          16  -4.1702231835461488E-005
          17  -1.3226119105111938E-002
          18  0.11889145994127094     
          19 -0.25925162148326425     
          20   1.6620958868581043E-005
          21  -3.8896492137677370E-004
          22 -0.14906266903120258     
          23  0.27601793081413600     
          24  -5.6542231576982594E-005
          25   7.6916429653727829E-003
          26  0.27192653301263237     
          27 -0.27963464712435765     
          28 -0.27960946798545150     
          29  0.27200448595430621     
          30   7.6708234267340086E-003
Sym=    13a
Ene=  -0.42190204565807388     
Spin= Alpha
Occup=     2.00000000
           1  -1.5525705900190102E-002
           2 -0.24180441771967445     
           3 -0.12855494509911652     
           4  -1.0228529641626966E-004
           5   8.0911035355493901E-003
           6  0.25860588361310838     
           7  0.15880080893317536     
           8  -9.6103440690517618E-005
           9   7.4437972850278627E-003
          10  0.27637512772658007     
          11  0.12909170212583684     
          12  -9.3059112261825237E-006
          13   7.4164852519093211E-003
          14 -0.27640961563641214     
          15 -0.12912900132754665     
          16   6.1536607021122456E-005
          17   8.0616609901063736E-003
          18 -0.25858800901644441     
          19 -0.15874121591103474     
          20   6.3810924291383625E-005
          21  -1.5477594226263654E-002
          22  0.24182035829438278     
          23  0.12852338730431898     
          24   1.1945387581834565E-004
          25  0.31844792467374250     
          26 -0.16584931545997025     
          27 -0.15256242528111225     
          28 -0.15259476411309858     
          29 -0.16590685501377908     
          30  0.31849588040433818     
Sym=    14a
Ene=  -0.40092472916324590     
Spin= Alpha
Occup=     2.00000000
           1  -1.6297876487259470E-005
           2  -4.1226022005007294E-005
           3  -5.7636555517925580E-005
           4  0.48850052791313225     
           5   4.9286013473610271E-005
           6   1.0812130099525956E-004
           7   3.2440655360627557E-005
           8  0.43395475536448308     
           9  -2.9619409241774345E-006
          10   4.3739693109808279E-005
          11   1.6407168231980108E-005
          12   5.4611897313616042E-002
          13   1.7689623915692869E-005
          14  -7.1800976767153458E-005
          15  -2.4669819677773671E-005
          16  -5.4515557135081813E-002
          17   2.0547583850498216E-005
          18  -1.8852185940017844E-005
          19  -3.2762056054415621E-005
          20 -0.43384915204562913     
          21  -3.0625630912829575E-005
          22   7.8404977051690358E-005
          23  -1.6025734317196284E-006
          24 -0.48840283487635655     
          25   7.2937567939983776E-005
          26  -5.7711783097766561E-005
          27  -3.1940252888644422E-005
          28  -2.4982492632716801E-005
          29  -3.4828491837305474E-005
          30   6.4932370088771147E-005
Sym=    15a
Ene=  -0.40090988154242818     
Spin= Alpha
Occup=     2.00000000
           1  -1.8960481730299068E-005
           2  -1.9105497989117480E-005
           3   1.6547841418478836E-006
           4  0.21900794369034202     
           5  -2.6333729284872041E-005
           6  -1.8131501986890582E-005
           7  -4.9039999928703204E-006
           8 -0.31349334387858419     
           9   2.7990476208965898E-005
          10   1.5623621511492814E-005
          11  -4.1706017560387521E-005
          12  0.53255021101368616     
          13   6.8956914931234475E-005
          14  -5.1592780162698689E-005
          15  -8.3885322385664623E-006
          16 -0.53253234272711925     
          17  -1.4924200234786684E-005
          18  -3.4036620645025483E-005
          19   3.0322836169177036E-005
          20  0.31351834984411869     
          21   8.5888093965452379E-007
          22   3.5184152647614445E-005
          23  -3.0614039084419066E-005
          24 -0.21900126376434487     
          25   4.5930943101689450E-006
          26  -7.4517807754439729E-006
          27   1.5831008469181521E-005
          28  -1.0824362221964735E-005
          29  -3.5752048169207812E-005
          30   2.2021808644410200E-005
Sym=    16a
Ene=  -0.22359005845444602     
Spin= Alpha
Occup=     0.00000000
           1  -2.1913313849270329E-005
           2  -3.0263052468704595E-007
           3  -2.3912508756892308E-005
           4  0.20818342897480818     
           5   2.8902904989488268E-005
           6   1.8560824932762689E-005
           7  -1.1383460622455066E-005
           8  0.42584995280662780     
           9  -2.7961147778303441E-005
          10   6.3758786142803314E-006
          11   4.1130919826839683E-005
          12 -0.63407028789594377     
          13   9.2638294055165298E-005
          14  -2.7328801984200556E-005
          15  -4.3128153128105276E-006
          16 -0.63406339703139514     
          17  -1.6229708157408615E-005
          18  -2.9073767977435281E-005
          19   9.4230564303575226E-006
          20  0.42586558587836776     
          21  -1.8315673513041362E-005
          22   1.1904272559551358E-005
          23  -3.1352581820634034E-006
          24  0.20818369152032801     
          25   1.9279502767281857E-005
          26  -7.8078120160526410E-006
          27   2.0229472847778831E-005
          28  -3.8315092787384372E-005
          29   1.6235742073081487E-005
          30   2.1889339331403352E-005
Sym=    17a
Ene=  -0.22356267719247991     
Spin= Alpha
Occup=     0.00000000
           1   9.2757950984964689E-006
           2  -6.3472291893715822E-006
           3   2.7345580559637789E-005
           4 -0.61202371908139364     
           5   6.4109827309719231E-005
           6   5.7324493954688969E-005
           7   1.3735055472223025E-005
           8  0.48635813414473933     
           9   6.5353404341000874E-007
          10   1.4372819520401291E-005
          11  -1.0132192784977226E-005
          12  0.12574361905723921     
          13  -3.6887883531255808E-005
          14   2.9763455994399967E-005
          15   1.0828583317665145E-005
          16  0.12562370324136463     
          17  -1.9156987887074696E-005
          18  -2.4732039590440629E-005
          19   2.1856094761502870E-005
          20  0.48622520535546537     
          21  -2.4655595868590865E-005
          22   3.2707069429773471E-005
          23  -2.5627878331772281E-005
          24 -0.61188881451326871     
          25   1.4086633650296582E-005
          26  -2.1758303005517454E-005
          27   9.9513771121918903E-006
          28   2.0404205713137859E-005
          29   3.0208795440817078E-006
          30   4.4586838520350228E-006
Sym=    18a
Ene=   -9.6120970303538320E-002
Spin= Alpha
Occup=     0.00000000
           1  -1.3678559649786121E-005
           2  -4.1385044604519538E-006
           3  -7.5908607276190294E-006
           4  0.50582861135138690     
           5  -4.1571730034265745E-005
           6  -1.9699505548961484E-005
           7   1.1690926403614008E-005
           8 -0.50584467380847087     
           9  -2.4046843393693117E-005
          10  -3.7001280956767534E-006
          11   4.5227899548528587E-005
          12 -0.50586788568910734     
          13  -8.0004824991878714E-005
          14   1.3500791492535498E-006
          15  -1.2477567083019810E-005
          16  0.50591814316850858     
          17  -3.1017887491737183E-005
          18  -3.9564038208047819E-005
          19   1.9607626687579791E-005
          20  0.50599095659097537     
          21  -2.9888872389878636E-006
          22  -1.7926041075816124E-006
          23   3.7241776559232746E-006
          24 -0.50603039926384663     
          25   3.9198889720221065E-006
          26   1.1265950819873342E-005
          27   3.4550036627586461E-005
          28   4.4491998468614088E-005
          29   4.2286337057688775E-005
          30   4.2940723872650790E-006
Sym=    19a
Ene=   0.11162676323287536     
Spin= Alpha
Occup=     0.00000000
           1  0.31890336372169292     
           2 -0.25420002949792497     
           3 -0.14463031406210664     
           4   1.9521979005880238E-005
           5  0.32056938434957916     
           6 -0.25194664523109017     
           7  0.14797485244981853     
           8  -1.8136306002119633E-005
           9  0.32076036431398319     
          10  -1.9841255604020175E-003
          11 -0.29313126594887823     
          12  -6.1384858165598364E-005
          13  0.31883495851271643     
          14   2.5088589549436945E-003
          15  0.29223244067624654     
          16   4.9971214521576975E-005
          17  0.31948375663418094     
          18  0.25294355257155693     
          19 -0.14852648349322822     
          20   6.3175763937638318E-005
          21  0.32065343211915415     
          22  0.25504642927449300     
          23  0.14450843679310499     
          24  -2.8798157106236320E-005
          25 -0.45900445337148971     
          26 -0.45979302639118291     
          27 -0.46082423181813409     
          28 -0.45879529614824027     
          29 -0.46014889395392289     
          30 -0.46076377135888541     
Sym=    20a
Ene=   0.12321939822599427     
Spin= Alpha
Occup=     0.00000000
           1  0.52962880233188403     
           2  -4.0907820444035688E-002
           3  -2.3663604565870033E-002
           4   2.9532524014084789E-006
           5 -0.52831037664313107     
           6   4.0012093838769587E-002
           7  -2.3537008154159642E-002
           8   3.3769699936794310E-005
           9 -0.52879691477437596     
          10   4.0358483139768178E-004
          11   4.6090198058999207E-002
          12   2.1535222177601349E-005
          13  0.52888025899763424     
          14   3.0820462108270682E-004
          15   4.6800721878135401E-002
          16   8.3305327310498898E-005
          17  0.52967472199059495     
          18   4.0862289913491688E-002
          19  -2.4476700043400620E-002