[Molden Format]
[Title]
[Atoms] AU
O      1     8  0.11570793061051E+01  0.00000000000000E+00  0.00000000000000E+00
C      2     6 -0.11570793061051E+01  0.00000000000000E+00  0.00000000000000E+00
H      3     1 -0.22676713495445E+01  0.45844755783292E+00 -0.17003755669335E+01
H      4     1 -0.22676713495445E+01 -0.45806961260799E+00  0.17003755669335E+01
[GTO]
           1 0
 s           4   1.0000000000000000     
   69.137961906196551      -0.20478756370077797     
   11.906129132707308      -0.24997023136827334     
  0.95670827744340703       0.40025880240639616     
  0.36462520496073686       0.15952206667693555     
 p           4   1.0000000000000000     
   8.2124193257781641        1.1321556799186829     
   2.1293576997098116        1.0476840782254817     
  0.75066448202360914       0.54956508217158984     
  0.29885246543283073        8.2908486592766617E-002

           2 0
 s           4   1.0000000000000000     
   51.049363095579913      -0.16312063210127389     
   8.7911227406887544      -0.19911024581000730     
  0.70640422258929825       0.31882047753655751     
  0.26922813413411617       0.12706504184240380     
 p           4   1.0000000000000000     
   5.8263656140800002       0.73716451545209605     
   1.5106896018720002       0.68216371614850257     
  0.53256483288000001       0.35783053929253711     
  0.21202323690600003        5.3983030275847881E-002

           3 0
 s           3   1.0000000000000000     
   3.3702276975336001       0.27359110588908298     
  0.61389118221497996       0.26460540653860526     
  0.16614291148415999        8.2465947534082318E-002

           4 0
 s           3   1.0000000000000000     
   3.3702276975336001       0.27359110588908298     
  0.61389118221497996       0.26460540653860526     
  0.16614291148415999        8.2465947534082318E-002

[MO]
Sym=     1a
Ene=  -0.73187005060208532     
Spin= Alpha
Occup=     2.00000000
           1 -0.65050800331188185     
           2  0.21126594506951327     
           3   1.8302629027297451E-006
           4  -7.7408419576300122E-007
           5 -0.35159519217057911     
           6 -0.23618863060795073     
           7  -7.7969709537058324E-007
           8  -1.2757448149373900E-006
           9  -3.4017727937677669E-002
          10  -3.4021627937837598E-002
Sym=     2a
Ene=  -0.63176668328386576     
Spin= Alpha
Occup=     2.00000000
           1  0.50978514059560287     
           2  0.36894981140854438     
           3  -1.3790892386471074E-005
           4  -1.1749790716999895E-005
           5 -0.47057074088361084     
           6  0.18583625818106786     
           7  -1.6856842598209720E-005
           8  -1.7575054872600025E-005
           9 -0.22392908988758983     
          10 -0.22395406710742141     
Sym=     3a
Ene=  -0.58003937555939922     
Spin= Alpha
Occup=     2.00000000
           1  -2.4100857712041798E-005
           2  -3.0493737992975210E-005
           3  0.13748404989206603     
           4 -0.51013670018403723     
           5   1.2453704304049702E-005
           6   9.2299990238419246E-006
           7  0.13619324402085572     
           8 -0.50534714619120302     
           9  0.25369077261760253     
          10 -0.25368919670153189     
Sym=     4a
Ene=  -0.54903575306994812     
Spin= Alpha
Occup=     2.00000000
           1  -2.1694951936678466E-004
           2  -3.2652315560750822E-004
           3 -0.70472464545975322     
           4 -0.18992633043553109     
           5  -1.9642422256921831E-005
           6   2.0200168837206919E-004
           7 -0.52800807724949217     
           8 -0.14230045406738384     
           9  -1.3123799730576085E-004
          10  -1.3123361968045067E-004
Sym=     5a
Ene=  -0.54344748909368290     
Spin= Alpha
Occup=     2.00000000
           1 -0.38988721556440847     
           2 -0.61096647977505880     
           3   3.7383038213077664E-004
           4   1.2724104828216269E-004
           5 -0.10346939160077208     
           6  0.42906295781980452     
           7   2.5806081585151396E-004
           8   8.6767351163547464E-005
           9 -0.25015034584744994     
          10 -0.25014547795439201     
Sym=     6a
Ene=  -0.42636264766533105     
Spin= Alpha
Occup=     2.00000000
           1   2.9623348173128034E-008
           2  -2.2025590826191776E-006
           3  0.21512039287857318     
           4 -0.79820754602252053     
           5  -2.2959702231247300E-006
           6   2.9048117366994611E-006
           7  -6.9257408524812505E-002
           8  0.25698068639819055     
           9 -0.37604628894183995     
          10  0.37601932580226738     
Sym=     7a
Ene=  -0.30105200029170992     
Spin= Alpha
Occup=     0.00000000
           1   7.8242252173613636E-006
           2   1.8226882439815865E-005
           3  0.69209138550796168     
           4  0.18652162853914583     
           5   7.3222086490548770E-005
           6  -5.1706761913775448E-005
           7 -0.83476634255810334     
           8 -0.22497314809835911     
           9  -3.4617211163114830E-005
          10  -3.4616298424444128E-005
Sym=     8a
Ene=    7.8565166619358195E-002
Spin= Alpha
Occup=     0.00000000
           1  -3.6754254039810329E-002
           2  0.21304587781843087     
           3  -5.7420480209559030E-005
           4   6.6167196492883777E-005
           5   1.0491526495630126     
           6 -0.46033608727650921     
           7   1.8323623934870400E-004
           8  -2.1460840470927846E-004
           9 -0.76492067609291725     
          10 -0.76457144416430034     
Sym=     9a
Ene=   0.21558651585975436     
Spin= Alpha
Occup=     0.00000000
           1   4.1492015890018171E-005
           2  -9.0224316466870432E-005
           3  -7.7829565634319600E-002
           4  0.28878783870397989     
           5  -3.0309497153790065E-004
           6   7.6321534566224582E-005
           7  0.28769543107023521     
           8  -1.0674984607321836     
           9 -0.82491071318891085     
          10  0.82527871752520043     
Sym=    10a
Ene=   0.47720077231827324     
Spin= Alpha
Occup=     0.00000000
           1 -0.77439928430025406     
           2  0.89887139392085158     
           3   6.4866986975256527E-007
           4   1.3391259346167820E-005
           5  0.56384311444454072     
           6   1.1040513248505259     
           7  -6.1842710049193218E-006
           8  -5.9035216365084127E-005
           9  0.17459520266515091     
          10  0.17468748192671329     
