[Molden Format]
[Title]
[Atoms] AU
C      1     6  0.00000000000000E+00  0.00000000000000E+00  0.00000000000000E+00
H      2     1  0.10470972456522E+01  0.15110250092465E+01  0.93824902087405E+00
H      3     1  0.12912498609531E+01 -0.15371032297663E+01 -0.47923454520374E+00
H      4     1 -0.14705848701796E+01 -0.70581270754573E+00  0.12646047225960E+01
H      5     1 -0.86795120903817E+00  0.73207990067796E+00 -0.17236191982663E+01
[GTO]
           1 0
 s           4   1.0000000000000000     
   51.049363095579913      -0.16312063210127389     
   8.7911227406887544      -0.19911024581000730     
  0.70640422258929825       0.31882047753655751     
  0.26922813413411617       0.12706504184240380     
 p           4   1.0000000000000000     
   5.8263656140800002       0.73716451545209605     
   1.5106896018720002       0.68216371614850257     
  0.53256483288000001       0.35783053929253711     
  0.21202323690600003        5.3983030275847881E-002

           2 0
 s           3   1.0000000000000000     
   3.3702276975336001       0.27359110588908298     
  0.61389118221497996       0.26460540653860526     
  0.16614291148415999        8.2465947534082318E-002

           3 0
 s           3   1.0000000000000000     
   3.3702276975336001       0.27359110588908298     
  0.61389118221497996       0.26460540653860526     
  0.16614291148415999        8.2465947534082318E-002

           4 0
 s           3   1.0000000000000000     
   3.3702276975336001       0.27359110588908298     
  0.61389118221497996       0.26460540653860526     
  0.16614291148415999        8.2465947534082318E-002

           5 0
 s           3   1.0000000000000000     
   3.3702276975336001       0.27359110588908298     
  0.61389118221497996       0.26460540653860526     
  0.16614291148415999        8.2465947534082318E-002

[MO]
Sym=     1a
Ene=  -0.58010297905527730     
Spin= Alpha
Occup=     2.00000000
           1 -0.55751864063696488     
           2  -2.8920664523123134E-006
           3  -3.8439875064338774E-007
           4  -2.6724586079072084E-006
           5 -0.21586552139954046     
           6 -0.21587097387356760     
           7 -0.21586015377081971     
           8 -0.21585446200551139     
Sym=     2a
Ene=  -0.46672128917504535     
Spin= Alpha
Occup=     2.00000000
           1   8.2668122000777284E-006
           2  0.21918332092727064     
           3 -0.49236823991441031     
           4 -0.22256678026576956     
           5 -0.31265516616340577     
           6  0.49561202906191365     
           7 -0.11077071671708930     
           8  -7.2214374565899006E-002
Sym=     3a
Ene=  -0.46671603028186193     
Spin= Alpha
Occup=     2.00000000
           1   5.5047808118759235E-007
           2  0.19575603317848717     
           3  0.29622465931849584     
           4 -0.46253659887685827     
           5   9.4498235343515605E-002
           6   8.2595081555933616E-003
           7 -0.46766898660310929     
           8  0.36491815139398159     
Sym=     4a
Ene=  -0.46671325762441662     
Spin= Alpha
Occup=     2.00000000
           1  -2.2013851083899147E-006
           2  0.50364149402631664     
           3   9.9146903050998436E-002
           4  0.27664654234538510     
           5  0.40493433146355295     
           6  0.15793523715308630     
           7 -0.19918638733736221     
           8 -0.36371097006900555     
Sym=     5a
Ene=   0.15255037838554572     
Spin= Alpha
Occup=     0.00000000
           1   1.2558904157091926     
           2  -3.9880055795769322E-004
           3   2.4234367197824703E-004
           4  -1.2769429301247548E-004
           5 -0.51439804504836140     
           6 -0.51413542966439929     
           7 -0.51459349758088258     
           8 -0.51481195514631395     
Sym=     6a
Ene=   0.21340345989897194     
Spin= Alpha
Occup=     0.00000000
           1   3.9838942379380612E-004
           2  0.43884573745905114     
           3 -0.18198881842418729     
           4  0.95250863834415844     
           5 -0.50637092757155533     
           6 -0.18323448653160945     
           7 -0.32296919725208001     
           8   1.0119468310913118     
Sym=     7a
Ene=   0.21342304542819365     
Spin= Alpha
Occup=     0.00000000
           1  -1.8734848287920916E-004
           2 -0.84508040395803630     
           3 -0.58457994421267057     
           4  0.27766868077714180     
           5  0.70790541871681711     
           6  0.15300879199317091     
           7 -0.94192261927911147     
           8   8.1304149911736595E-002
Sym=     8a
Ene=   0.21349196273966548     
Spin= Alpha
Occup=     0.00000000
           1  -4.0173005355020858E-004
           2 -0.47566245650008893     
           3  0.87074964101365515     
           4  0.38552025936278345     
           5 -0.55348270057314186     
           6   1.0036172231088010     
           7 -0.26856422205135144     
           8 -0.18094920448088297     
