11
step=0 target=0.00deg measured=0.00deg E=-6586.7038kcal/mol converged=True
C       -1.26673060      0.27912150     -0.00000286
C       -0.00312173     -0.57100100      0.00000986
C        1.26629402      0.28926423      0.00000732
H       -1.29504325      0.91591089      0.88039671
H       -1.29491413      0.91603612     -0.88031566
H       -2.15486361     -0.34799814     -0.00011116
H       -0.01279698     -1.21954924      0.87709144
H       -0.01280323     -1.21953512     -0.87708033
H        1.00997267      1.34490971     -0.00000316
H        1.87509376      0.09524330     -0.87804669
H        1.87509991      0.09524521      0.87805456
11
step=1 target=15.00deg measured=15.00deg E=-6587.0884kcal/mol converged=True
C       -1.26677053      0.27943767     -0.00034426
C       -0.00286913     -0.57119836     -0.00015464
C        1.26616306      0.28906548      0.00025147
H       -1.29530243      0.91601412      0.88102767
H       -1.29508250      0.91626070     -0.88093410
H       -2.15504447     -0.34820491     -0.00016304
H       -0.01293246     -1.21932893      0.87781842
H       -0.01249511     -1.21995184     -0.87723447
H        1.02939084      1.31668042      0.26383850
H        1.73786860      0.29786261     -0.97876912
H        1.99351444     -0.07936350      0.71812583
11
step=2 target=30.00deg measured=30.00deg E=-6588.0681kcal/mol converged=True
C       -1.26471395      0.28298888     -0.00339209
C       -0.00084406     -0.57006369     -0.00198296
C        1.26579851      0.28640971      0.00459405
H       -1.29838296      0.91505063      0.88218542
H       -1.29695884      0.92031673     -0.88571059
H       -2.15097890     -0.34768028     -0.00326009
H       -0.01024781     -1.20535001      0.88765638
H        0.00216343     -1.22543261     -0.87539091
H        1.08245615      1.22854303      0.51697215
H        1.57361913      0.52102257     -1.01301176
H        2.08509260     -0.22936358      0.49810498
11
step=3 target=45.00deg measured=45.00deg E=-6588.9941kcal/mol converged=True
C       -1.26450451      0.28292949     -0.00328385
C       -0.00013895     -0.56924230     -0.00185600
C        1.26460928      0.28586096      0.00468012
H       -1.29814953      0.91510028      0.88174395
H       -1.29683464      0.92024843     -0.88521757
H       -2.15100635     -0.34773957     -0.00350482
H       -0.01002597     -1.20526902      0.88749057
H        0.00235236     -1.22529079     -0.87524709
H        1.17248985      1.09358012      0.72806016
H        1.42586396      0.73872886     -0.97257663
H        2.14027204     -0.30943718      0.25193580
11
step=4 target=60.00deg measured=60.00deg E=-6589.3615kcal/mol converged=True
C       -1.26287125      0.28210048     -0.00095788
C        0.00057021     -0.56823431      0.00024139
C        1.25967703      0.28763390      0.00533197
H       -1.29455313      0.91905380      0.87987866
H       -1.29462157      0.92026228     -0.88104639
H       -2.14900972     -0.34821509     -0.00507138
H        0.00010450     -1.20995333      0.88339069
H        0.00405988     -1.21566442     -0.87876398
H        1.28558240      0.92076053      0.88930076
H        1.28474383      0.93014215     -0.87176987
H        2.14996113     -0.33656369     -0.00223718
11
step=5 target=75.00deg measured=75.00deg E=-6588.9788kcal/mol converged=True
C       -1.26509927      0.28255931      0.00059923
C       -0.00092295     -0.57078515      0.00188270
C        1.25967139      0.29238918      0.00511459
H       -1.29552339      0.91845020      0.88382896
H       -1.29253648      0.91806851     -0.88332107
H       -2.15240862     -0.34727177     -0.00024352
H        0.00027332     -1.22320786      0.87861649
H       -0.00346212     -1.21022665     -0.88553527
H        1.42634088      0.72597628      0.98938916
H        1.17268074      1.09990142     -0.71900259
H        2.13415101     -0.30384251     -0.25038751
11
step=6 target=90.00deg measured=90.00deg E=-6588.0360kcal/mol converged=True
C       -1.26504926      0.28204250      0.00069482
C       -0.00141885     -0.57102061      0.00194272
C        1.26014776      0.29285187      0.00533047
H       -1.29552920      0.91837250      0.88345828
H       -1.29265888      0.91769145     -0.88281704
H       -2.15240451     -0.34705669     -0.00020283
H        0.00006507     -1.22329222      0.87768456
H       -0.00391629     -1.20961571     -0.88508665
H        1.57539627      0.50872693      1.02349730
H        1.08060172      1.23371928     -0.50936574
H        2.07812378     -0.22068325     -0.49608103
11
step=7 target=105.00deg measured=105.00deg E=-6587.1054kcal/mol converged=True
C       -1.26782656      0.27914404      0.00116495
C       -0.00347329     -0.57065724      0.00246025
C        1.26336389      0.29400033      0.00675537
H       -1.29646025      0.91675018      0.88184794
H       -1.29430900      0.91424072     -0.88105316
H       -2.15649902     -0.34759865      0.00034974
H       -0.00820155     -1.22808432      0.87241929
H       -0.01237196     -1.20915834     -0.88267096
H        1.73355445      0.29728234      0.98617577
H        1.03005154      1.31882002     -0.26745593
H        1.99530587     -0.08266852     -0.70302227
11
step=8 target=120.00deg measured=120.00deg E=-6586.6857kcal/mol converged=True
C       -1.26782656      0.27914404      0.00116495
C       -0.00347329     -0.57065724      0.00246025
C        1.26336389      0.29400033      0.00675537
H       -1.29646025      0.91675018      0.88184794
H       -1.29430900      0.91424072     -0.88105316
H       -2.15649902     -0.34759865      0.00034974
H       -0.00820155     -1.22808432      0.87241929
H       -0.01237196     -1.20915834     -0.88267096
H        1.87149290      0.09568725      0.88493832
H        1.00806400      1.34973073     -0.00495691
H        1.87805986      0.08992247     -0.86611568
11
step=9 target=135.00deg measured=135.00deg E=-6587.1216kcal/mol converged=True
C       -1.26840006      0.28151718     -0.00331628
C       -0.00275471     -0.57006037     -0.00062590
C        1.26985798      0.28787327     -0.00051626
H       -1.30387718      0.91340028      0.88195352
H       -1.29866128      0.91800975     -0.88645621
H       -2.15481788     -0.34952766     -0.00270955
H       -0.02138847     -1.21022534      0.88528204
H       -0.00294681     -1.22485905     -0.87425353
H        1.99747254     -0.08353603      0.71688810
H        1.03434003      1.31223876      0.28219489
H        1.73149761      0.31137517     -0.98447876
11
step=10 target=150.00deg measured=150.00deg E=-6588.0806kcal/mol converged=True
C       -1.26635357      0.28108423     -0.00324655
C       -0.00088003     -0.56744790     -0.00241615
C        1.26618614      0.28634380     -0.00076544
H       -1.30118051      0.91500871      0.87970551
H       -1.29901252      0.91909586     -0.88324316
H       -2.15221067     -0.35024932     -0.00656768
H       -0.01354743     -1.20291421      0.88547964
H       -0.00118430     -1.22597334     -0.87214567
H        2.08228033     -0.22233847      0.50668155
H        1.09003889      1.22068570      0.52931028
H        1.57904083      0.52867451     -1.01219535
11
step=11 target=165.00deg measured=165.00deg E=-6588.9907kcal/mol converged=True
C       -1.26600917      0.28235583     -0.00319663
C        0.00017765     -0.56741646     -0.00245332
C        1.26454638      0.28624191     -0.00023898
H       -1.30069174      0.91546540      0.88052399
H       -1.29863239      0.92040825     -0.88422984
H       -2.15148154     -0.35052900     -0.00656677
H       -0.01024684     -1.20278600      0.88738383
H        0.00031386     -1.22577018     -0.87421010
H        2.13716342     -0.30875923      0.26323059
H        1.18059513      1.08238632      0.73810120
H        1.43144019      0.74443068     -0.97302167
11
step=12 target=180.00deg measured=180.00deg E=-6589.3568kcal/mol converged=True
C       -1.26328481      0.28304699     -0.00184333
C        0.00062703     -0.56740106     -0.00152403
C        1.26127762      0.28640821      0.00525155
H       -1.29754301      0.91761752      0.88098166
H       -1.29631720      0.92111159     -0.88226617
H       -2.14819589     -0.34887311     -0.00546323
H        0.00339713     -1.20725259      0.88315681
H        0.00247316     -1.21581582     -0.88058351
H        2.14810803     -0.34311699      0.00535114
H        1.28865795      0.91318672      0.89426898
H        1.29215624      0.93091774     -0.86992599
11
step=13 target=195.00deg measured=195.00deg E=-6588.9906kcal/mol converged=True
C       -1.26543378      0.28178014      0.00107341
C       -0.00086082     -0.56990767      0.00248507
C        1.26370609      0.28613804      0.01129615
H       -1.29572674      0.91859030      0.88307184
H       -1.29280001      0.91800985     -0.88125844
H       -2.15323702     -0.34804588     -0.00112291
H       -0.00272010     -1.22792709      0.87452571
H       -0.00525576     -1.20562447     -0.88664377
H        2.13662121     -0.30825657     -0.25086335
H        1.42507428      0.73008782      0.99094227
H        1.18330221      1.09304505     -0.71603301
11
step=14 target=210.00deg measured=210.00deg E=-6588.0659kcal/mol converged=True
C       -1.26535514      0.28155292      0.00134327
C       -0.00160074     -0.57046648      0.00231948
C        1.26472761      0.28647938      0.01173254
H       -1.29587289      0.91853713      0.88302471
H       -1.29290342      0.91782698     -0.88120093
H       -2.15296532     -0.34776513     -0.00099127
H       -0.00291672     -1.22801798      0.87394177
H       -0.00548098     -1.20525041     -0.88660077
H        2.08060217     -0.22279956     -0.49548302
H        1.57200137      0.51315986      1.02898942
H        1.09019239      1.22791412     -0.50673834
11
step=15 target=225.00deg measured=225.00deg E=-6587.1285kcal/mol converged=True
C       -1.26694033      0.28058253      0.00193289
C       -0.00357262     -0.57149445      0.00190712
C        1.26896209      0.28632130      0.01302279
H       -1.29757851      0.91704314      0.88378318
H       -1.29427285      0.91514519     -0.88092570
H       -2.15494369     -0.34723554      0.00054083
H       -0.01193247     -1.23262473      0.86943085
H       -0.01265537     -1.20631517     -0.88644962
H        1.99859995     -0.08281316     -0.70225180
H        1.72738601      0.30368823      0.99747556
H        1.03537033      1.31179186     -0.26397472
11
step=16 target=240.00deg measured=240.00deg E=-6586.6932kcal/mol converged=True
C       -1.26694033      0.28058253      0.00193289
C       -0.00357262     -0.57149445      0.00190712
C        1.26896209      0.28632130      0.01302279
H       -1.29757851      0.91704314      0.88378318
H       -1.29427285      0.91514519     -0.88092570
H       -2.15494369     -0.34723554      0.00054083
H       -0.01193247     -1.23262473      0.86943085
H       -0.01265537     -1.20631517     -0.88644962
H        1.88207180      0.09212881     -0.86255426
H        1.86536480      0.10024680      0.90143792
H        1.01200070      1.34304664     -0.00057854
11
step=17 target=255.00deg measured=255.00deg E=-6587.1058kcal/mol converged=True
C       -1.26748146      0.28043025     -0.00321289
C       -0.00280979     -0.57068114     -0.00093225
C        1.26519790      0.29346476      0.00953905
H       -1.30077606      0.91231176      0.88126482
H       -1.29680309      0.91985621     -0.88358094
H       -2.15409984     -0.34921558     -0.00415246
H       -0.02464706     -1.21368231      0.88214645
H       -0.00074176     -1.22339664     -0.87559160
H        1.74291947      0.30290347     -0.96705754
H        1.99428252     -0.09037360      0.71891416
H        1.03058536      1.31642924      0.29187651
11
step=18 target=270.00deg measured=270.00deg E=-6588.0648kcal/mol converged=True
C       -1.26715691      0.28118745     -0.00344812
C       -0.00134152     -0.56788715     -0.00208273
C        1.26183092      0.29286744      0.01023480
H       -1.30027665      0.91332841      0.88140134
H       -1.29759808      0.92088720     -0.88316621
H       -2.15314859     -0.34995686     -0.00858505
H       -0.01406345     -1.20539269      0.88477904
H        0.00474578     -1.22263754     -0.87478801
H        1.58783992      0.51780722     -1.00217512
H        2.07905790     -0.22900166      0.50495823
H        1.08656846      1.22566353      0.53885106
11
step=19 target=285.00deg measured=285.00deg E=-6588.9817kcal/mol converged=True
C       -1.26697308      0.28137921     -0.00343620
C       -0.00068514     -0.56726411     -0.00200874
C        1.26101472      0.29224433      0.01035161
H       -1.30033414      0.91329442      0.88131288
H       -1.29754996      0.92101511     -0.88312309
H       -2.15308006     -0.34995794     -0.00857681
H       -0.01355618     -1.20546008      0.88510364
H        0.00506293     -1.22251518     -0.87514216
H        1.43938611      0.73467086     -0.96746749
H        2.13488945     -0.30834839      0.25761275
H        1.17817399      1.08804070      0.74622252
11
step=20 target=300.00deg measured=300.00deg E=-6589.3589kcal/mol converged=True
C       -1.26449956      0.28285508     -0.00215074
C        0.00041537     -0.56669992     -0.00002077
C        1.26007101      0.28928847      0.01043027
H       -1.30014732      0.91591729      0.88178282
H       -1.29636678      0.92240999     -0.88200275
H       -2.14955240     -0.34914705     -0.00748619
H        0.00009347     -1.20982276      0.88292065
H        0.00795003     -1.21130743     -0.88191883
H        1.29247741      0.92882378     -0.86902394
H        2.14683829     -0.34073460      0.00483599
H        1.28814367      0.91694255      0.89875530
11
step=21 target=315.00deg measured=315.00deg E=-6588.9894kcal/mol converged=True
C       -1.26654004      0.28164795      0.00150553
C       -0.00160101     -0.56835734      0.00192297
C        1.26365393      0.28750000      0.00797123
H       -1.29860836      0.91764954      0.88365318
H       -1.29298006      0.91888539     -0.88003992
H       -2.15309278     -0.34936611     -0.00450970
H       -0.00266532     -1.22530444      0.87376255
H       -0.00356025     -1.20496386     -0.88601155
H        1.17856331      1.10068630     -0.70986406
H        2.13765076     -0.30786386     -0.24295179
H        1.42383696      0.72915419      0.98945343
11
step=22 target=330.00deg measured=330.00deg E=-6588.0559kcal/mol converged=True
C       -1.26654004      0.28164795      0.00150553
C       -0.00160101     -0.56835734      0.00192297
C        1.26365393      0.28750000      0.00797123
H       -1.29860836      0.91764954      0.88365318
H       -1.29298006      0.91888539     -0.88003992
H       -2.15309278     -0.34936611     -0.00450970
H       -0.00266532     -1.22530444      0.87376255
H       -0.00356025     -1.20496386     -0.88601155
H        1.08732438      1.23407679     -0.49868460
H        2.08308241     -0.22545602     -0.48872186
H        1.57109091      0.51119264      1.02751448
11
step=23 target=345.00deg measured=345.00deg E=-6587.1226kcal/mol converged=True
C       -1.26730552      0.28054211      0.00102908
C       -0.00291995     -0.57093466      0.00203718
C        1.26835682      0.28782659      0.00761046
H       -1.30068260      0.91501689      0.88427246
H       -1.29491125      0.91692508     -0.88089992
H       -2.15508140     -0.34812210     -0.00178371
H       -0.01109928     -1.23134480      0.87076810
H       -0.01396262     -1.20638357     -0.88641425
H        1.03597234      1.31756248     -0.25369569
H        2.00469029     -0.08816738     -0.69684289
H        1.72494969      0.30175208      0.99496108
