[Molden Format]
made by pyscf v[2.13.1]
[Atoms] (AU)
O   1   8     0.00000000000000     0.00000000000000     0.00000000000000
H   2   1     0.52421002695435     1.68733645662414     0.48074632608935
H   3   1     1.14668581238608    -0.45032173548385    -1.35474465870069
[GTO]
1 0
 s    6 1.00
          27032.382631  0.00057227335211155
          4052.3871392  0.0044353233492995
           922.3272271   0.023020107706038
          261.24070989   0.092822490667928
          85.354641351    0.29378500009671
          31.035035245    0.67401604501641
 s    2 1.00
          12.260860728    0.63839937025506
          4.9987076005    0.39534587125718
 s    1 1.00
          1.1703108158                   1
 s    1 1.00
         0.46474740994                   1
 s    1 1.00
         0.18504536357                   1
 p    4 1.00
          63.274954801   0.012018332222616
          14.627049379   0.083005421790056
          4.4501223456    0.31991743925964
          1.5275799647    0.70715542916104
 p    1 1.00
         0.52935117943                   1
 p    1 1.00
          0.1747842127                   1
 d    1 1.00
                 2.314                   1
 d    1 1.00
                 0.645                   1
 f    1 1.00
                 1.428                   1

2 0
 s    3 1.00
             34.061341   0.025439307208879
             5.1235746    0.19008594890375
             1.1646626    0.85244113011042
 s    1 1.00
            0.32723041                   1
 s    1 1.00
            0.10307241                   1
 p    1 1.00
                   0.8                   1

3 0
 s    3 1.00
             34.061341   0.025439307208879
             5.1235746    0.19008594890375
             1.1646626    0.85244113011042
 s    1 1.00
            0.32723041                   1
 s    1 1.00
            0.10307241                   1
 p    1 1.00
                   0.8                   1

[5d]
[7f]
[9g]

[MO]
 Sym= A
 Ene=    -19.12899356
 Spin= Alpha
 Occup=    2.00000
   1      0.43505900365208
   2      0.63977536091642
   3     0.034154762683109
   4    -0.022100911038153
   5    0.0089517928145339
   6    0.0013323057795156
   7    0.0009863463506433
   8    -0.00069689204102982
   9    -0.0022239898392896
  10    -0.0016464884354702
  11    0.0011633057120761
  12    0.00081196406842913
  13    0.0006011196500003
  14    -0.00042471671997799
  15    -1.7486529897545e-05
  16    -0.00012627409778869
  17    0.00012417626159711
  18    -6.3403178662338e-05
  19    4.4200731854265e-05
  20    8.0549494745134e-05
  21    0.00061626879357761
  22    -0.00062598285001469
  23    0.00032024578312608
  24    -0.00020338091319375
  25    5.4644521528971e-05
  26    -0.00012931830504739
  27    0.00015052580886771
  28    0.00020707696964989
  29    -0.00016127711455528
  30    0.00010980186768497
  31    0.0001489948450113
  32    0.00084289655384602
  33    0.0016098640081394
  34    -0.0018589868299018
  35    -0.00028492215225438
  36    -0.0010394799858599
  37    -0.00033240169317885
  38    0.00084289641088594
  39    0.0016098601477007
  40    -0.0018589901711895
  41    -0.00068187838225159
  42    0.00032372542950058
  43    0.00083810608361046
 Sym= A
 Ene=    -1.012339361
 Spin= Alpha
 Occup=    2.00000
   1    -0.097747696774697
   2     -0.22980546713658
   3      0.33597624327766
   4      0.43693222101454
   5       0.1583405410085
   6     0.063838748246326
   7     0.047261549567992
   8    -0.033392364758252
   9     0.053609262015943
  10     0.039688459406491
  11    -0.028041541009931
  12    0.0087507969151116
  13    0.0064784649553034
  14    -0.004577303295052
  15    -0.00053102508176876
  16    -0.0031079380445612
  17    0.0026370838408261
  18    -0.001333328059381
  19     0.001346930671436
  20    -0.0016863632224869
  21    -0.0081194773117384
  22    0.0056440477506108
  23    -0.0028084990414857
  24    0.0042885674407925
  25    -0.00051424516303775
  26    0.0016356717836556
  27    -0.0020020048891852
  28    -0.0027865476999302
  29    0.0018260465121176
  30    -0.0015269886328158
  31    -0.0016778004093167
  32     0.093349212329778
  33     0.069968549433073
  34    0.0071434358958003
  35    -0.002996729449586
  36    -0.015673021948578
  37    -0.0062503903078816
  38     0.093349468605796
  39     0.069968705029301
  40    0.0071434484188268
  41    -0.0094428689484068
  42    0.0064636555913693
  43     0.012757215989739
 Sym= A
 Ene=   -0.5307951878
 Spin= Alpha
 Occup=    2.00000
   1    -4.515854726896e-08
   2    -1.0321995187303e-07
   3    1.198872527195e-07
   4    3.531415048145e-07
   5    2.8858836428434e-07
   6    -0.083016394216805
   7      0.28508758263653
   8      0.24478948990902
   9    -0.063892125585496
  10      0.21941291241598
  11         0.18839809316
  12    -0.026862291295752
  13     0.092248168055794
  14     0.079208561171492
  15    -0.0052429971430789
  16    0.0068136290899953
  17    0.00075894469743413
  18    -0.0069522056571412
  19    0.0052867797346437
  20    -0.010503662108865
  21     0.013650202634688
  22    0.0015204762283283
  23    -0.013927855779767
  24     0.010591383569029
  25    -0.0023588460027404
  26    -0.0030083379995576
  27    0.00090883137429519
  28    -0.0014111218562907
  29    -0.0016653574667303
  30    -0.001487446625623
  31    -0.0014093597516479
  32      0.14758442738302
  33      0.18595193559843
  34      0.06811224374833
  35    -0.011224297035595
  36    -0.015879707298727
  37    0.0014724477769787
  38     -0.14758449465857
  39     -0.18595194428044
  40    -0.068112173976639
  41     0.014851156086076
  42    0.0034247088673576
  43     -0.01216689850013
 Sym= A
 Ene=   -0.3924400233
 Spin= Alpha
 Occup=    2.00000
   1     0.037197500969328
   2     0.088869333153366
   3      -0.1390947114572
   4     -0.19591787903409
   5     -0.23123350752116
   6      0.30760327216833
   7      0.22772782867157
   8       -0.160898636164
   9      0.23616423601205
  10      0.17483942411442
  11     -0.12353086241211
  12      0.17469287757438
  13      0.12933032039403
  14    -0.091376939312088
  15      -0.0013738755171
  16    -0.0037966662627891
  17    0.00020143054914663
  18    7.7580969842182e-06
  19    0.0035119346799763
  20    -0.0070459127880078
  21    -0.012220786904498
  22    -0.010278147794223
  23     0.005946061526572
  24     0.018057332635653
  25    0.00053380583765113
  26    0.0010145639927701
  27    -0.0017146434369272
  28    -0.0025351617788014
  29    0.00010183846599783
  30    -0.0016132115512808
  31    -4.4163411532173e-05
  32     0.087593859314794
  33      0.12555006823995
  34     0.046104099773087
  35     0.010844187391044
  36    -0.0074503987077969
  37    -0.014666385485966
  38     0.087593799651701
  39      0.12554991129745
  40     0.046103941706854
  41    0.0034282803831227
  42     0.018016730274656
  43    0.0072008576170391
 Sym= A
 Ene=    -0.316180816
 Spin= Alpha
 Occup=    2.00000
   1    -8.7391468221688e-10
   2    -3.580896952337e-09
   3    1.4529208116183e-09
   4    1.4850917429895e-08
   5    5.7716191161931e-09
   6      0.30336508183571
   7     -0.18491928807154
   8      0.31824272282448
   9      0.24367539400949
  10     -0.14853482810736
  11      0.25562572873034
  12      0.21565975165546
  13     -0.13145761016585
  14      0.22623614813998
  15    -0.0019533538982552
  16    0.0010809992112583
  17    0.0022514856080915
  18    0.0029827361882142
  19    0.00026876096098956
  20    -0.011847096438122
  21    0.0065562768749035
  22     0.013655298196798
  23     0.018090323828233
  24    0.0016300520002957
  25    0.0017431064617819
  26    -0.0020376203264867
  27    0.0023261451732391
  28    -0.0015166780181877
  29    0.0032241653982409
  30    -0.00062572055326656
  31    0.0013011233107002
  32    -8.9503838340999e-09
  33    -1.3541705097214e-08
  34    -7.6625236913894e-09
  35     0.016158547400795
  36    -0.0098496057258637
  37     0.016950996428003
  38    -2.1510184773999e-09
  39    9.049688488654e-09
  40    -3.1902851462642e-10
  41     0.016158562233718
  42    -0.0098496171762906
  43     0.016951013228423
 Sym= A
 Ene=   0.01238269769
 Spin= Alpha
 Occup=    0.00000
   1    -0.033294833864819
   2    -0.083869886556756
   3      0.18930148342824
   4    -0.031578823313989
   5       1.1563527701348
   6      0.12189969680948
   7     0.090246378771028
   8    -0.063762084324746
   9      0.08805864166357
  10     0.065192794914691
  11    -0.046060802702414
  12      0.24853063292534
  13      0.18399533569196
  14     -0.12999899412945
  15    -0.00036693487137194
  16    0.00021874700458273
  17     -0.00186944644334
  18    0.0010063263648004
  19    0.00094586631004761
  20    -0.0022048234530025
  21    -0.0011398950065378
  22    -0.0074039127945368
  23    0.0040472850133372
  24      0.00566771624071
  25    0.00014626438415908
  26    0.00038201025471552
  27    -0.00061526151165362
  28    -0.00090278783346145
  29    0.00010449404696159
  30    -0.00056467157345155
  31    -8.0581370031284e-05
  32    -0.038956164298927
  33    -0.093805883598133
  34     -0.93129612491255
  35    -0.0076700701658755
  36    -0.030044864128549
  37    -0.010146479221715
  38    -0.038955852610965
  39     -0.09380528253417
  40     -0.93129368435062
  41    -0.019344163609072
  42       0.0100454481259
  43     0.024276881712774
 Sym= A
 Ene=   0.08786123248
 Spin= Alpha
 Occup=    0.00000
   1    3.7386499939389e-08
   2    1.0167920373701e-07
   3    -3.2897279084606e-07
   4    5.4671330402117e-07
   5    -2.5001575932898e-06
   6    -0.055337112456878
   7      0.19003400851355
   8      0.16317199959099
   9    -0.026757537357013
  10      0.09188888639086
  11     0.078899935978012
  12     -0.14762449144062
  13      0.50695894903263
  14      0.43529855919027
  15    0.00062207870852284
  16    -0.00080843098730571
  17    -9.0057212738932e-05
  18    0.00082488110220313
  19    -0.00062727516754639
  20    0.0086932192052132
  21    -0.011297441743023
  22    -0.0012583786074534
  23     0.011527201616708
  24    -0.0087658126161755
  25    -0.0001818324822022
  26    0.00070557399366132
  27    0.0013070760344986
  28    -0.0016632255514759
  29    -0.00075459705104558
  30    0.0015687215884149
  31    -0.00030270056911302
  32    -0.036119267890717
  33    -0.028352513789325
  34      -1.6253155398129
  35    -0.016496259801314
  36    -0.042487957621031
  37    -0.0089631370069204
  38     0.036119083638398
  39     0.028351909272552
  40       1.6253190941693
  41     0.031001449777013
  42    -0.0073241251505444
  43    -0.033807938229233
 Sym= A
 Ene=    0.3526953564
 Spin= Alpha
 Occup=    0.00000
   1    8.8577531965509e-08
   2    1.9781938159071e-07
   3    -1.3449974077908e-07
   4    -1.1751467394504e-06
   5    1.6439455806665e-06
   6     0.025514115038306
   7    -0.087620367045422
   8    -0.075234351649915
   9     0.074607633413428
  10     -0.25621367773898
  11     -0.21999621610348
  12      0.24952167157421
  13     -0.85688832108631
  14     -0.73576340922811
  15     -0.01373635675546
  16     0.017851289606948
  17    0.0019884556907563
  18    -0.018214422704356
  19     0.013851072883657
  20     0.052556927557183
  21    -0.068301268016443
  22    -0.0076078379381189
  23     0.069690407754494
  24    -0.052995853667209
  25    0.0057005232596238
  26    0.0085721530392876
  27    -0.00047825120488304
  28    0.0012512533913731
  29    0.0031548376140716
  30     0.005932671711805
  31    0.0031364178030052
  32      0.12388064962713
  33       1.4383776262927
  34     -0.57781355725424
  35    -0.013635949405174
  36    -0.088520290982984
  37    -0.038437448089085
  38      -0.1238800030455
  39      -1.4383709023423
  40       0.5778076080049
  41     0.051209903939021
  42    -0.040513134170281
  43    -0.072356580135715
 Sym= A
 Ene=    0.4054387633
 Spin= Alpha
 Occup=    0.00000
   1     0.036563788372053
   2     0.080053491728699
   3     0.022263702554545
   4     -0.87395536142938
   5      -0.5121832840445
   6     0.040380877324401
   7     0.029895225616681
   8    -0.021122194682421
   9     0.021530385773853
  10     0.015940718096333
  11     -0.01126157383011
  12      -1.0459879269474
  13      -0.7743712470026
  14      0.54713023589636
  15    -0.0022662753543877
  16    -0.013269704285027
  17     0.011263449058819
  18    -0.0056950208461229
  19    0.0057483161349152
  20     0.012065578013115
  21     0.049757003271707
  22    -0.027374853742288
  23     0.013301978510768
  24    -0.030737667948825
  25    0.0025561680265743
  26    -0.0053711329827153
  27    0.0060930078820609
  28    0.0083295740649677
  29    -0.0070449051835502
  30     0.004336610607599
  31    0.0065232220155386
  32     0.086013994620494
  33       1.4702787110582
  34      -0.4131610569053
  35    -0.033403399182801
  36    -0.083452078059749
  37    -0.016649154613184
  38     0.086014561723743
  39       1.4702875717286
  40     -0.41315947230077
  41    -0.061538289192064
  42     0.013164748676344
  43     0.066310969856463
 Sym= A
 Ene=    0.4245512259
 Spin= Alpha
 Occup=    0.00000
   1    -1.1063612656701e-08
   2    -2.246078299166e-08
   3    -8.2790325856805e-09
   4    2.8489347722746e-07
   5    -9.1411197570454e-08
   6     -0.20239134611655
   7      0.12336963043612
   8     -0.21231694110297
   9     -0.44575935277223
  10      0.27171701034616
  11     -0.46762011579037
  12      0.78426811216801
  13     -0.47805815853396
  14      0.82272965934694
  15    0.0029871366730082
  16    -0.0016530992786907
  17    -0.0034430532000883
  18    -0.0045613041258664
  19    -0.00041100208049518
  20    -0.0032837216491122
  21    0.0018172316901327
  22    0.0037849127187449
  23    0.0050141898029467
  24    0.00045181981776608
  25    -0.00068557890256825
  26    0.00069279462210733
  27    -0.00094806230326818
  28    0.00053233091721283
  29    -0.0011694090171637
  30    0.00031789392855531
  31    -0.00042938603328289
  32    -8.1498407904447e-09
  33    -1.9561819749337e-07
  34    1.9377425598008e-08
  35    -0.0020525974935611
  36    0.0012511976613017
  37    -0.0021532626779861
  38    -1.7217611650662e-08
  39    -2.310569350708e-07
  40    9.3125783229439e-08
  41    -0.0020526370714944
  42    0.0012512095511996
  43    -0.0021533195251845
 Sym= A
 Ene=    0.4330134769
 Spin= Alpha
 Occup=    0.00000
   1    0.0056451906097115
   2     0.013483851353594
   3    0.0068440823874228
   4     -0.17307509500555
   5     -0.17221656972001
   6     -0.24982638069391
   7     -0.18495386436789
   8      0.13067728155085
   9     -0.56232367925615
  10     -0.41630402428408
  11       0.2941364798985
  12       0.5382063066269
  13      0.39845451806817
  14     -0.28151840320901
  15    0.0014133943333376
  16    -0.0017919035345847
  17    0.0086815724143663
  18    -0.0046493348973991
  19    -0.0036493659514433
  20    0.0015402627182005
  21    0.0053015607313169
  22    -0.0018546509420184
  23    0.00084147770709542
  24     -0.00393096804977
  25    0.0011983946803186
  26    -0.0028498788332658
  27     0.003320402011634
  28    0.0045688992034388
  29    -0.0035471279514392
  30    0.0024242257481093
  31    0.0032766590785603
  32     0.081460434136294
  33      0.79285436778517
  34     -0.56449694880283
  35    -0.019201479323846
  36    -0.020622489122947
  37    0.0063208452345732
  38     0.081460930358239
  39      0.79286273902058
  40     -0.56449605369363
  41    -0.022271767646399
  42    -0.010080618601223
  43      0.01537309666548
 Sym= A
 Ene=    0.5661303625
 Spin= Alpha
 Occup=    0.00000
   1    -6.5821572079608e-08
   2    -1.3068805998465e-07
   3    -7.3064688607271e-08
   4    3.1480021629466e-06
   5    -9.9175270505083e-06
   6    -0.075835009045608
   7      0.26042620739188
   8       0.2236139783915
   9     -0.16213976771607
  10      0.55680458391125
  11      0.47809873837658
  12      0.43916412907004
  13      -1.5081523956461
  14      -1.2949660507156
  15    -0.0046357868975441
  16    0.0060244648322249
  17    0.00067109138572156
  18    -0.0061470601302387
  19    0.0046745081425572
  20     0.024677984458088
  21    -0.032070462903365
  22    -0.0035723930092466
  23     0.032723004207153
  24    -0.024884133071109
  25    0.00053998549708671
  26    0.0013915284939354
  27    0.00071949526557065
  28    -0.00084244330424494
  29    -8.8351261109346e-05
  30      0.00160270473905
  31    0.00017715149310437
  32    -0.061059129084143
  33    -0.087350377917517
  34       1.6114913629805
  35    -0.015943445687892
  36    -0.038950543983468
  37    -0.0074346458658266
  38     0.061059180743554
  39     0.087359277940663
  40      -1.6114897185894
  41     0.028949200361568
  42    -0.0057146241524308
  43    -0.030916408751525
 Sym= A
 Ene=    0.5947252093
 Spin= Alpha
 Occup=    0.00000
   1     0.051214995939816
   2      0.10595120076063
   3     0.099898298099099
   4      -2.2504877732397
   5       4.8350791276193
   6    -0.052839236225271
   7    -0.039117745092076
   8     0.027639117524618
   9    0.0042317309009927
  10    0.0031340423128629
  11    -0.0022128566670428
  12      0.95251507641787
  13      0.70517053754533
  14     -0.49823662598858
  15     0.001675447456357
  16     0.011553906951662
  17    -0.011047453092328
  18    0.0056308442273648
  19    -0.004238505999832
  20    -0.0091395094328426
  21    -0.040152268454818
  22     0.024577875201414
  23    -0.012082279266032
  24     0.023267393069223
  25    -0.002182294731094
  26    0.0042898946576758
  27    -0.004788498289831
  28    -0.0065197736850351
  29    0.0057967860574443
  30    -0.0033538175669881
  31    -0.0053744856327164
  32     0.021031569475061
  33     -0.94201879568891
  34     -0.95331630866665
  35     0.037010048482566
  36     0.079620944436371
  37     0.010984978863085
  38     0.021031835379061
  39     -0.94201881805832
  40     -0.95332616669266
  41     0.062029705366658
  42    -0.0062990718424602
  43     -0.06279001948305
 Sym= A
 Ene=     1.155326444
 Spin= Alpha
 Occup=    0.00000
   1    0.0035351907098625
   2    0.0092324206946787
   3    -0.037729186661024
   4    -0.075501957923484
   5      0.89534608169397
   6     0.059291820840201
   7      0.04389549978575
   8    -0.031013888541892
   9      0.11285048984759
  10     0.083546240114335
  11    -0.059029126699147
  12      0.42188464094208
  13      0.31233300716122
  14     -0.22067645620352
  15    0.0025791447584682
  16    0.0015270484940411
  17     0.008358892320913
  18    -0.0045767219884934
  19    -0.0066287232485706
  20      0.13131925308985
  21      0.16642878313203
  22      0.28725301295809
  23     -0.16078762680052
  24     -0.33693883217572
  25    -0.0013430039278242
  26    0.0029145257311597
  27    -0.0033306287691552
  28    -0.0045615585556564
  29    0.0037694865347089
  30    -0.0023875452758916
  31    -0.003488208156128
  32     0.039120462477598
  33     -0.57803152939606
  34    -0.047086634943537
  35     -0.29230609445469
  36     0.060285463801655
  37      0.31367067371655
  38     0.039120469409122
  39     -0.57803338799902
  40    -0.047086995807097
  41     -0.15974275329553
  42     -0.39495063905001
  43    -0.077216579184176
 Sym= A
 Ene=     1.186174294
 Spin= Alpha
 Occup=    0.00000
   1    -9.0798228483758e-11
   2    -1.5844300650768e-10
   3    4.9664163305527e-09
   4    -1.7550264637469e-08
   5    1.4982766828886e-08
   6    -4.1380376918359e-08
   7    2.3599667441978e-08
   8    -4.8938717515721e-08
   9    1.8659252806352e-07
  10    -1.0669945172591e-07
  11    2.2545517929062e-07
  12    -2.7093145017266e-07
  13    1.6742570725559e-07
  14    -2.9959204875524e-07
  15    0.0060251234983336
  16    0.0021362691223736
  17    0.0020299739403954
  18     0.001229479873522
  19    0.0045473607749186
  20      0.39969179079228
  21      0.14171532746305
  22      0.13466416301959
  23     0.081561489943621
  24      0.30166111545314
  25    0.0059694049364799
  26    -0.0031624234851825
  27    -0.0020270588395435
  28    8.1959849267316e-06
  29    -0.0010443486393249
  30     0.002217080808576
  31    -0.0056619156053308
  32    5.5264433682417e-09
  33    -2.1634484287519e-08
  34    5.8625729901091e-09
  35      0.27028439443889
  36     -0.16475459350735
  37      0.28353968746822
  38    -4.829214929705e-09
  39    2.2790715161683e-08
  40    -1.1579665434847e-08
  41      -0.2702837616841
  42      0.16475422762725
  43     -0.28353898877134
 Sym= A
 Ene=     1.289489059
 Spin= Alpha
 Occup=    0.00000
   1    -8.9078229457787e-11
   2    4.5316314783009e-10
   3    -5.8989973230643e-09
   4    1.5450773243415e-08
   5    2.1948206048225e-08
   6    -0.063290173255234
   7     0.038579169609065
   8    -0.066394048463595
   9    -0.030221260073256
  10     0.018421688471502
  11    -0.031703388062852
  12      -0.1363252823242
  13     0.083098475962311
  14     -0.14301096676217
  15    -0.00052320846334882
  16    0.00028953613950509
  17    0.00060304607960493
  18    0.00079890808374212
  19    7.197615295511e-05
  20     -0.29980297544691
  21      0.16591308515537
  22      0.34556104120961
  23      0.45779386561886
  24     0.041249873699674
  25    -0.005313300400245
  26    -0.0017531853026454
  27    -0.0095223067027132
  28    -8.3571027746098e-05
  29    -0.0025921131259848
  30    0.0071712245796218
  31    0.0020727012283397
  32    -2.8119573697664e-10
  33    -2.1603472866554e-08
  34    3.2636922617521e-09
  35      0.24416478598252
  36      -0.1488331322855
  37      0.25613913919534
  38    -5.6586111543826e-10
  39    -3.1869798224664e-08
  40    1.124940485962e-09
  41      0.24416530576085
  42     -0.14883346292533
  43      0.25613964971176
 Sym= A
 Ene=     1.524107721
 Spin= Alpha
 Occup=    0.00000
   1    -3.5043824485269e-08
   2    -1.4170051144224e-07
   3    2.0216191527613e-06
   4    -7.4413721514577e-06
   5    -5.4949534080716e-06
   6     0.025193964000019
   7    -0.086517570292405
   8    -0.074288376711157
   9     -0.19193386926589
  10      0.65911194129425
  11      0.56594709393384
  12     -0.19947666644313
  13       0.6850182593527
  14      0.58819049303799
  15    0.0043874747227717
  16    -0.0057018103907177
  17    -0.00063511065193281
  18    0.0058177857595292
  19    -0.0044241179465892
  20     -0.51394108133766
  21      0.66790266424209
  22     0.074394480343927
  23     -0.68148516456612
  24      0.51823276964005
  25    -0.024382018678293
  26    -0.044346700482856
  27    -0.0080908758719761
  28     0.007386157738393
  29    -0.0083624607587036
  30    -0.039169195514753
  31    -0.011824605112697
  32      0.38174541813336
  33       -2.151973591642
  34      0.52930347302789
  35      0.27278723813132
  36      0.34960536439344
  37    -0.056891653265888
  38     -0.38174656560234
  39       2.1519894376731
  40     -0.52930455424794
  41     -0.34353176641466
  42     -0.10667022005809
  43       0.2654897050433
 Sym= A
 Ene=     1.633171752
 Spin= Alpha
 Occup=    0.00000
   1    -0.015423358227258
   2    -0.051422505390965
   3      0.38412851134218
   4     -0.65460174517894
   5      -1.8119955514638
   6     0.074305710690911
   7     0.055010631584856
   8    -0.038867280341275
   9     -0.36680410092565
  10     -0.27155398276183
  11      0.19186610365754
  12     -0.69623568618394
  13     -0.51544445397759
  14      0.36418111360987
  15    -0.0012841902862793
  16    -0.0044397719770784
  17    0.0015782435408782
  18    -0.00071853675989362
  19    0.0032769739482462
  20      0.12783303478627
  21      0.77884587581488
  22     -0.68269186030468
  23      0.34596908534621
  24     -0.32404520045932
  25    0.0065882457766668
  26    -0.021906337153743
  27     0.026978315254815
  28     0.037602620652958
  29    -0.024094614593372
  30     0.020684208388614
  31     0.022121189654518
  32     -0.35070968959344
  33       2.0386133289059
  34      -0.1930474717108
  35    -0.054667530387758
  36     -0.23076861722482
  37    -0.081979388596271
  38      -0.3507082341845
  39       2.0386144937976
  40     -0.19304644767025
  41     -0.14584053136143
  42     0.082329535822973
  43      0.18686129258528
 Sym= A
 Ene=     1.744690806
 Spin= Alpha
 Occup=    0.00000
   1    7.5740245032353e-09
   2    6.285100525238e-09
   3    4.5451728805903e-07
   4    -2.6071694935571e-06
   5    1.5644636834042e-06
   6     0.035102092613136
   7     -0.12054417946369
   8      -0.1035049337318
   9    -0.054762349417921
  10      0.18805539230842
  11      0.16147440851046
  12     0.080400679820242
  13      -0.2761025546198
  14     -0.23707516098214
  15    0.0048892636596371
  16    -0.0063539377798684
  17    -0.00070777716135319
  18     0.006483185172257
  19    -0.0049300814417827
  20      -0.1869166737429
  21      0.24290965619853
  22      0.02705751945187
  23     -0.24785123442499
  24      0.18847794383782
  25    -0.0076361068907531
  26    -0.016064872124287
  27    -0.0054054430673761
  28     0.005921576445209
  29    -0.0011653084820466
  30    -0.016174846701464
  31    -0.0032528531384906
  32      0.11409870297581
  33     -0.41190370938012
  34      0.34735349615898
  35     -0.51956896162575
  36      0.11739892600454
  37      0.56349572088141
  38     -0.11409863470016
  39       0.4119043877935
  40     -0.34735413228671
  41      0.27903232754857
  42      0.70862800943535
  43      0.14577019340975
 Sym= A
 Ene=     1.980352889
 Spin= Alpha
 Occup=    0.00000
   1     0.014559771752207
   2     0.063055324743504
   3     -0.80578250099323
   4       2.5252053793904
   5    -0.097282042107451
   6     -0.30420145367277
   7     -0.22520906265567
   8      0.15911940090249
   9      0.98625525590959
  10      0.73015031630851
  11     -0.51588469243274
  12    -0.027700053323765
  13    -0.020506481636532
  14     0.014489437797562
  15    0.0004032423123666
  16    0.0026625161472283
  17    -0.0024745877771735
  18    0.0012590339504382
  19    -0.001020821665617
  20     0.063783210873434
  21      0.12160762352304
  22     0.075916422726678
  23    -0.044884270785745
  24     -0.16339422005838
  25    -0.026722319775049
  26     0.053070996953727
  27    -0.059391684032845
  28    -0.080917163008008
  29     0.071380400480775
  30    -0.041705289534883
  31    -0.066167020091724
  32      0.67113340198509
  33      -1.9154563627933
  34       0.4988891915156
  35      0.31277002145957
  36       0.7342778680823
  37      0.12851410112929
  38      0.67113128789438
  39      -1.9154593599898
  40      0.49888937484307
  41       0.5536317493837
  42    -0.092857937121379
  43     -0.58170607530222
 Sym= A
 Ene=     2.050615701
 Spin= Alpha
 Occup=    0.00000
   1    3.4983694562873e-09
   2    1.2979325070206e-08
   3    -1.3811989722019e-07
   4    3.7916093393361e-07
   5    -2.5371961639328e-08
   6      0.20551579082302
   7     -0.12527429995438
   8      0.21559476319542
   9     -0.10963173310384
  10     0.066827359988338
  11     -0.11500846959105
  12      0.30777149514687
  13     -0.18760523359291
  14      0.32286521325758
  15     0.004077796430324
  16    -0.0022567531539107
  17    -0.0047002965575319
  18    -0.0062268576750427
  19    -0.00056113567917092
  20     -0.39573928815774
  21      0.21901217218476
  22       0.4561516700563
  23      0.60430071568199
  24     0.054456859055528
  25    -0.0061531746077057
  26    -0.0017603490987536
  27     -0.01094529150137
  28    6.2806981121211e-05
  29    -0.0032472760403311
  30    0.0081264770219389
  31    0.0021954867641712
  32    9.8705262928909e-08
  33    -3.1749185971777e-07
  34    7.8279530801528e-08
  35     -0.47744114017844
  36      0.29102926015964
  37     -0.50085579333676
  38    8.7165808035076e-08
  39    -2.2460012517249e-07
  40    6.7536053252321e-08
  41     -0.47743229118082
  42      0.29102368597097
  43      -0.5008465917262
 Sym= A
 Ene=     2.089077541
 Spin= Alpha
 Occup=    0.00000
   1    -3.0823476385642e-10
   2    -3.5640389494041e-10
   3    -2.7373057380785e-09
   4    1.7502128839471e-08
   5    5.5701310661385e-09
   6    -2.3208098416284e-06
   7    1.4209284485828e-06
   8    -2.4393860453336e-06
   9    1.0239899154944e-06
  10    -6.666320512533e-07
  11    1.0002321770305e-06
  12    -3.1119976263126e-06
  13    1.9024808457302e-06
  14    -3.2741524868217e-06
  15    -0.0098164030205074
  16    -0.0034804668650747
  17    -0.0033072577603929
  18    -0.0020030475307105
  19    -0.0074087250668963
  20       0.7867180225092
  21      0.27893571749803
  22      0.26505416903475
  23      0.16053047841768
  24      0.59375898088412
  25    0.0030448113325498
  26    -0.0016129851398207
  27    -0.001033867230063
  28    4.2036859614581e-06
  29    -0.00053270649402665
  30    0.0011307918925835
  31    -0.0028879820223376
  32    -1.2266529679138e-08
  33    6.1691021812616e-08
  34    -1.7944165092296e-08
  35     -0.47865631129079
  36      0.29176976573663
  37     -0.50213052237015
  38    1.2180663508478e-08
  39    -8.1624003143846e-08
  40    1.6471280274861e-08
  41      0.47866607235836
  42      -0.2917757583737
  43      0.50214070936833
 Sym= A
 Ene=     2.280928646
 Spin= Alpha
 Occup=    0.00000
   1    1.4511227797559e-08
   2    7.2588149442133e-09
   3    1.5348223332876e-07
   4    2.3711510578538e-06
   5    -2.6530726342639e-06
   6    -0.089457652212369
   7      0.30720823561085
   8      0.26378314349779
   9       0.4587132241731
  10      -1.5752734467077
  11      -1.3526029029493
  12    -0.081427096829384
  13      0.27962739970934
  14      0.24010179091267
  15     -0.01746740890666
  16     0.022700003957311
  17    0.0025285609722235
  18    -0.023161794850883
  19     0.017613288230396
  20     0.063333420167012
  21    -0.082306108821701
  22    -0.0091687153968037
  23     0.083980765844545
  24    -0.063862160033143
  25     0.054532359534618