[Molden Format]
[Title]
[Atoms] AU
O      1     8  0.00000000000000E+00  0.00000000000000E+00  0.00000000000000E+00
H      2     1  0.52421002696971E+00  0.16873364566736E+01  0.48074632610344E+00
H      3     1  0.11466858124197E+01 -0.45032173549705E+00 -0.13547446587404E+01
[GTO]
           1 0
 s           4   1.0000000000000000     
   69.137961906196551      -0.20478756370077797     
   11.906129132707308      -0.24997023136827334     
  0.95670827744340703       0.40025880240639616     
  0.36462520496073686       0.15952206667693555     
 p           4   1.0000000000000000     
   8.2124193257781641        1.1321556799186829     
   2.1293576997098116        1.0476840782254817     
  0.75066448202360914       0.54956508217158984     
  0.29885246543283073        8.2908486592766617E-002

           2 0
 s           3   1.0000000000000000     
   3.3702276975336001       0.27359110588908298     
  0.61389118221497996       0.26460540653860526     
  0.16614291148415999        8.2465947534082318E-002

           3 0
 s           3   1.0000000000000000     
   3.3702276975336001       0.27359110588908298     
  0.61389118221497996       0.26460540653860526     
  0.16614291148415999        8.2465947534082318E-002

[MO]
Sym=     1a
Ene=  -0.68022242634096508     
Spin= Alpha
Occup=     2.00000000
           1 -0.79604838292163327     
           2  -6.6203224614169595E-002
           3  -4.9012132096677610E-002
           4   3.4629101562050547E-002
           5 -0.18426386107548365     
           6 -0.18426420363665286     
Sym=     2a
Ene=  -0.56506467717796360     
Spin= Alpha
Occup=     2.00000000
           1   3.1109602242579954E-007
           2 -0.15090950415495183     
           3  0.51824089173827570     
           4  0.44498554309885807     
           5  0.35481342510652508     
           6 -0.35481317576180915     
Sym=     3a
Ene=  -0.51506498810393486     
Spin= Alpha
Occup=     2.00000000
           1 -0.45729142567609837     
           2  0.59323120287407194     
           3  0.43918648165621732     
           4 -0.31030275689086717     
           5  0.24221263967444273     
           6  0.24221244471177164     
Sym=     4a
Ene=  -0.44708916690676526     
Spin= Alpha
Occup=     2.00000000
           1  -6.6819643346104828E-017
           2 -0.63602053976920747     
           3  0.38769278948796343     
           4 -0.66721224057321349     
           5  -3.2986679128645160E-016
           6  -1.1690008126922843E-016
Sym=     5a
Ene=    7.3283229525270790E-002
Spin= Alpha
Occup=     0.00000000
           1  0.82106858297141083     
           2  0.53669193098784806     
           3  0.39733335063635611     
           4 -0.28072598969549012     
           5 -0.76348215192758251     
           6 -0.76347306573157847     
Sym=     6a
Ene=   0.22190411846659563     
Spin= Alpha
Occup=     0.00000000
           1  -5.3328374492675885E-006
           2 -0.20489926025878838     
           3  0.70363546360807072     
           4  0.60417736555710233     
           5 -0.89641146534115224     
           6  0.89642037528673291     
