8
step=0 target=0.00deg measured=0.00deg E=-9894.8510kcal/mol converged=True
F        1.39704863     -0.54730901      0.12058329
C        0.71147501      0.55503730     -0.29914834
C       -0.71193470      0.55709908      0.29792241
F       -0.89569650     -0.54400288      1.08231950
H        0.68932946      0.50601315     -1.39281753
H        1.28836499      1.42647189      0.02689172
H       -1.47829892      0.51772246     -0.48283065
H       -0.87649958      1.42605417      0.94351133
8
step=1 target=15.00deg measured=15.00deg E=-9895.3816kcal/mol converged=True
F        1.39943726     -0.55132054      0.11866086
C        0.71077571      0.55055640     -0.29788390
C       -0.70929524      0.55519620      0.30127602
F       -0.79478197     -0.33772442      1.32951359
H        0.67591891      0.52237464     -1.39098558
H        1.28637967      1.42117128      0.03515574
H       -1.45531114      0.24812626     -0.43992903
H       -0.96412328      1.54137302      0.70054613
8
step=2 target=30.00deg measured=30.00deg E=-9896.7001kcal/mol converged=True
F        1.39924585     -0.55140128      0.11841901
C        0.70770817      0.55126289     -0.29739751
C       -0.70678639      0.55590222      0.29946027
F       -0.71607311     -0.07036440      1.51382708
H        0.67417320      0.52297634     -1.39080670
H        1.28605048      1.42010598      0.03710947
H       -1.41066965      0.00517668     -0.33498450
H       -1.06536307      1.57786845      0.45595715
8
step=3 target=45.00deg measured=45.00deg E=-9898.3370kcal/mol converged=True
F        1.39463091     -0.55257673      0.11926810
C        0.70344523      0.55072047     -0.29643721
C       -0.70269490      0.55677690      0.29809917
F       -0.66229467      0.24094544      1.62717271
H        0.65866458      0.52631452     -1.38876672
H        1.27731864      1.41828065      0.04693770
H       -1.33209157     -0.20308239     -0.17768317
H       -1.15597149      1.54732814      0.20257293
8
step=4 target=60.00deg measured=60.00deg E=-9899.6765kcal/mol converged=True
F        1.39506560     -0.55320079      0.11944020
C        0.70212292      0.55088377     -0.29606116
C       -0.70152448      0.55683459      0.29736105
F       -0.64554478      0.57271841      1.66426672
H        0.65836094      0.52606500     -1.38884349
H        1.27683966      1.41862793      0.04694854
H       -1.24656876     -0.35402630      0.02497751
H       -1.25224906      1.44546126     -0.02473012
8
step=5 target=75.00deg measured=75.00deg E=-9900.4238kcal/mol converged=True
F        1.39825477     -0.55591698      0.11906726
C        0.70087381      0.54881385     -0.29404949
C       -0.69880847      0.55738511      0.29883110
F       -0.66461803      0.90507967      1.62373597
H        0.65723844      0.51593167     -1.38651484
H        1.26463500      1.42386131      0.04357022
H       -1.14322787     -0.44115773      0.24474019
H       -1.33049070      1.28909480     -0.21307720
8
step=6 target=90.00deg measured=90.00deg E=-9900.5647kcal/mol converged=True
F        1.40156043     -0.55452500      0.11880471
C        0.70296552      0.55002324     -0.29442245
C       -0.70078037      0.55609933      0.29949077
F       -0.71704481      1.21080857      1.50361373
H        0.66442163      0.50617760     -1.38681438
H        1.26448439      1.42867184      0.03860018
H       -1.04349982     -0.46680089      0.48509679
H       -1.39920411      1.08580517     -0.35498458
8
step=7 target=105.00deg measured=105.00deg E=-9900.3802kcal/mol converged=True
F        1.40167674     -0.55523889      0.11870377
C        0.70409967      0.54983849     -0.29519091
C       -0.70210343      0.55634169      0.29980955
F       -0.79663451      1.47464080      1.31317403
H        0.66923956      0.50574281     -1.38666035
H        1.26330640      1.42881820      0.03709928
H       -0.94076385     -0.42191809      0.72617156
H       -1.44498729      0.84132031     -0.44944151
8
step=8 target=120.00deg measured=120.00deg E=-9900.2907kcal/mol converged=True
F        1.39436202     -0.55688586      0.11981523
C        0.70367612      0.55107378     -0.29937823
C       -0.70480322      0.55501865      0.29661774
F       -0.89428143      1.67703883      1.06180592
H        0.69122956      0.51068130     -1.39238882
H        1.26208916      1.42924990      0.04032861
H       -0.84231093     -0.31135186      0.95153341
H       -1.48096552      0.57328859     -0.47389942
8
step=9 target=135.00deg measured=135.00deg E=-9900.4823kcal/mol converged=True
F        1.39353062     -0.55684162      0.11985809
C        0.70406983      0.55096272     -0.29973063
C       -0.70533984      0.55507713      0.29663284
F       -1.01478700      1.80200352      0.77418763
H        0.69131136      0.51129578     -1.39239241
H        1.26179741      1.42913821      0.04084858
H       -0.76115967     -0.13935327      1.14096555
H       -1.46987816      0.31017841     -0.44576275
8
step=10 target=150.00deg measured=150.00deg E=-9900.9486kcal/mol converged=True
F        1.37942848     -0.55640201      0.12455251
C        0.70232221      0.55364740     -0.30240020
C       -0.70532232      0.55115224      0.29522139
F       -1.13122394      1.84118785      0.46071074
H        0.68974247      0.52074073     -1.39574130
H        1.25922192      1.43010057      0.04654414
H       -0.69467223      0.08134563      1.28478547
H       -1.43183566      0.05450364     -0.35451296
8
step=11 target=165.00deg measured=165.00deg E=-9901.3569kcal/mol converged=True
F        1.37908267     -0.55668347      0.12494795
C        0.70186740      0.55364579     -0.30213610
C       -0.70482454      0.55120091      0.29505869
F       -1.26110232      1.79391402      0.15338527
H        0.68925929      0.52131737     -1.39579622
H        1.25896963      1.43006450      0.04647085
H       -0.65964768      0.33406587      1.36781695
H       -1.36912087     -0.15744164     -0.20875977
8
step=12 target=180.00deg measured=180.00deg E=-9901.5107kcal/mol converged=True
F        1.37143122     -0.55719302      0.13266189
C        0.70166988      0.55498581     -0.29876867
C       -0.70242290      0.55320848      0.29689780
F       -1.37218396      1.66538751     -0.13453301
H        0.67214838      0.52519037     -1.39336645
H        1.26266131      1.43125062      0.03817761
H       -0.65838990      0.59558040      1.38884596
H       -1.27176743     -0.32628420     -0.02285618
8
step=13 target=195.00deg measured=195.00deg E=-9901.3598kcal/mol converged=True
F        1.38129164     -0.55294436      0.13495151
C        0.70537258      0.55802795     -0.29325465
C       -0.70182851      0.55881842      0.30153672
F       -1.48104791      1.46175032     -0.37078584
H        0.65555046      0.50959701     -1.38636844
H        1.28365675      1.43085406      0.02319009
H       -0.70046309      0.85338000      1.35491497
H       -1.16524494     -0.42638613      0.18177247
8
step=14 target=210.00deg measured=210.00deg E=-9900.9398kcal/mol converged=True
F        1.38156981     -0.55289528      0.13515503
C        0.70548435      0.55799415     -0.29297441
C       -0.70183854      0.55911941      0.30149721
F       -1.56004321      1.19248978     -0.55686657
H        0.65521042      0.50934351     -1.38610658
H        1.28404468      1.43081583      0.02256572
H       -0.74345140      1.09418669      1.25443255
H       -1.06183082     -0.46795411      0.42542600
8
step=15 target=225.00deg measured=225.00deg E=-9900.5133kcal/mol converged=True
F        1.39063265     -0.55257779      0.13548136
C        0.70720581      0.55675679     -0.28964771
C       -0.70297486      0.56235953      0.29955360
F       -1.61696420      0.88360662     -0.66990709
H        0.65327781      0.50640093     -1.38229719
H        1.29012411      1.42796847      0.01848673
H       -0.81612870      1.29684758      1.10047456
H       -0.95639628     -0.43783529      0.66658836
8
step=16 target=240.00deg measured=240.00deg E=-9900.2897kcal/mol converged=True
F        1.39063265     -0.55257779      0.13548136
C        0.70720581      0.55675679     -0.28964771
C       -0.70297486      0.56235953      0.29955360
F       -1.63359533      0.55000431     -0.70653940
H        0.65327781      0.50640093     -1.38229719
H        1.29012411      1.42796847      0.01848673
H       -0.89787507      1.45185025      0.90335077
H       -0.85929883     -0.34134265      0.89806158
8
step=17 target=255.00deg measured=255.00deg E=-9900.3771kcal/mol converged=True
F        1.39935717     -0.55035380      0.12704195
C        0.70511184      0.55568162     -0.29078038
C       -0.70137728      0.56029185      0.29952645
F       -1.62499959      0.21598154     -0.65348914
H        0.65666721      0.50663179     -1.38236905
H        1.28587691      1.42436572      0.03169397
H       -0.98807871      1.55097302      0.66317781
H       -0.77810612     -0.18212689      1.09905490
8
step=18 target=270.00deg measured=270.00deg E=-9900.5572kcal/mol converged=True
F        1.39691982     -0.55360643      0.12489200
C        0.70278594      0.55223347     -0.29215297
C       -0.69981905      0.55621876      0.29913064
F       -1.57325259     -0.09645436     -0.53138840
H        0.65833570      0.51240672     -1.38535342
H        1.27076014      1.42726651      0.03769657
H       -1.07442892      1.57762836      0.41518605
H       -0.71304261      0.03039717      1.25933167
8
step=19 target=285.00deg measured=285.00deg E=-9900.4244kcal/mol converged=True
F        1.39644378     -0.55198050      0.12221008
C        0.70175666      0.55192413     -0.29277009
C       -0.69883068      0.55568392      0.29965469
F       -1.49291951     -0.35910748     -0.33751383
H        0.65967884      0.51032858     -1.38525750
H        1.26597480      1.42835972      0.04010508
H       -1.17172065      1.53399384      0.17092304
H       -0.67266403      0.27415268      1.35657710
8
step=20 target=300.00deg measured=300.00deg E=-9899.6862kcal/mol converged=True
F        1.39782725     -0.55220671      0.12087224
C        0.70308413      0.55136912     -0.29365996
C       -0.70015641      0.55514370      0.30055683
F       -1.39050671     -0.56004666     -0.08950916
H        0.66426103      0.50443575     -1.38806896
H        1.25719743      1.43495137      0.03796326
H       -1.25774875      1.42899797     -0.05044585
H       -0.66119526      0.53250865      1.39573297
8
step=21 target=315.00deg measured=315.00deg E=-9898.3168kcal/mol converged=True
F        1.39775025     -0.55150148      0.12059652
C        0.70431213      0.55102933     -0.29394227
C       -0.70134584      0.55476223      0.30093464
F       -1.26977301     -0.68388728      0.19647917
H        0.66479640      0.50398950     -1.38768045
H        1.25716346      1.43501332      0.03732383
H       -1.33903207      1.25955432     -0.24076094
H       -0.67228867      0.79767342      1.36873020
8
step=22 target=330.00deg measured=330.00deg E=-9896.7174kcal/mol converged=True
F        1.40465502     -0.54822055      0.11908493
C        0.70950181      0.55177426     -0.29441790
C       -0.70659739      0.55459936      0.30125972
F       -1.14806657     -0.72171404      0.50210858
H        0.67816244      0.49731158     -1.38867261
H        1.26621145      1.43748617      0.02535778
H       -1.41055565      1.04819236     -0.37511021
H       -0.72115560      1.03899189      1.28436377
8
step=23 target=345.00deg measured=345.00deg E=-9895.3775kcal/mol converged=True
F        1.40500569     -0.54745024      0.11891899
C        0.71175831      0.55163761     -0.29500444
C       -0.70877767      0.55427059      0.30202984
F       -1.02056471     -0.67403490      0.80598727
H        0.67894534      0.49773577     -1.38841391
H        1.26824164      1.43685388      0.02467812
H       -1.45043386      0.79884385     -0.46322074
H       -0.78206099      1.25549426      1.14014753
