8
step=0 target=0.00deg measured=0.00deg E=-4601.0467kcal/mol converged=True
C       -0.76522135      0.00000646     -0.00001087
C        0.76522135     -0.00000919      0.00000594
H       -1.15795325      0.65124248      0.77571616
H       -1.15796109      0.34620266     -0.95185441
H       -1.15798119     -0.99740256      0.17610578
H        1.15795498      0.65121800      0.77574064
H        1.15798013      0.34616635     -0.95183664
H        1.15796042     -0.99742419      0.17613340
8
step=1 target=15.00deg measured=15.00deg E=-4601.4187kcal/mol converged=True
C       -0.76536330      0.00020442     -0.00016238
C        0.76536330     -0.00023074      0.00012093
H       -1.15787409      0.65182722      0.77582833
H       -1.15788050      0.34585107     -0.95247328
H       -1.15790105     -0.99776268      0.17671916
H        1.15787163      0.42810892      0.91843615
H        1.15790127      0.58143531     -0.82987264
H        1.15788275     -1.00943524     -0.08859654
8
step=2 target=30.00deg measured=30.00deg E=-4602.3831kcal/mol converged=True
C       -0.76313407      0.00387700     -0.00314181
C        0.76313418     -0.00487586      0.00101726
H       -1.14731412      0.65991702      0.77463333
H       -1.14823005      0.33427173     -0.96414906
H       -1.14731461     -0.99598277      0.19165712
H        1.14722199      0.16973980      1.00346457
H        1.14733783      0.78675634     -0.64005011
H        1.14829884     -0.95358550     -0.36311811
8
step=3 target=45.00deg measured=45.00deg E=-4603.2846kcal/mol converged=True
C       -0.76193832      0.00374249     -0.00311535
C        0.76193846     -0.00475092      0.00096021
H       -1.14707856      0.65977344      0.77473414
H       -1.14807916      0.33427931     -0.96423348
H       -1.14727729     -0.99588321      0.19166941
H        1.14543410     -0.09528682      1.01510618
H        1.14747880      0.92582156     -0.41264887
H        1.14950841     -0.82687438     -0.59570677
8
step=4 target=60.00deg measured=60.00deg E=-4603.5981kcal/mol converged=True
C       -0.76193832      0.00374249     -0.00311535
C        0.76193846     -0.00475092      0.00096021
H       -1.14707856      0.65977344      0.77473414
H       -1.14807916      0.33427931     -0.96423348
H       -1.14727729     -0.99588321      0.19166941
H        1.14414296     -0.35448514      0.95770646
H        1.14721639      1.00135578     -0.15711950
H        1.15103942     -0.64424127     -0.78755832
8
step=5 target=75.00deg measured=75.00deg E=-4603.2785kcal/mol converged=True
C       -0.76117142     -0.00475538      0.00253228
C        0.76114595      0.00420839      0.00584250
H       -1.14397210      0.64854333      0.78254338
H       -1.14312678      0.35914990     -0.94905688
H       -1.14804437     -1.00805923      0.16330835
H        1.14001952     -0.57813085      0.84195912
H        1.14744802      1.01782572      0.07993102
H        1.14763523     -0.44161682     -0.90832500
8
step=6 target=90.00deg measured=90.00deg E=-4602.3905kcal/mol converged=True
C       -0.76406895     -0.00359332      0.00462565
C        0.76403691      0.00270191      0.00770747
H       -1.15471995      0.64847101      0.78244697
H       -1.14742679      0.36266760     -0.94604981
H       -1.15051010     -1.00665785      0.15879592
H        1.15231118     -0.77430757      0.66215372
H        1.14967938      0.96380673      0.33451135
H        1.15062975     -0.19352271     -0.99076028
8
step=7 target=105.00deg measured=105.00deg E=-4601.4404kcal/mol converged=True
C       -0.76406895     -0.00359332      0.00462565
C        0.76403691      0.00270191      0.00770747
H       -1.15471995      0.64847101      0.78244697
H       -1.14742679      0.36266760     -0.94604981
H       -1.15051010     -1.00665785      0.15879592
H        1.15335017     -0.91695608      0.43836383
H        1.14968325      0.84673177      0.57174102
H        1.14957115      0.07183889     -1.00791028
8
step=8 target=120.00deg measured=120.00deg E=-4601.0342kcal/mol converged=True
C       -0.76699869     -0.00186490      0.00264202
C        0.76696908      0.00264842      0.00508289
H       -1.16330369      0.64806625      0.77756011
H       -1.15492942      0.35561046     -0.94677673
H       -1.16044840     -1.00166192      0.16610759
H        1.16277967     -0.99337984      0.18180018
H        1.15993544      0.66372149      0.77298783
H        1.15588960      0.33846998     -0.95180690
8
step=9 target=135.00deg measured=135.00deg E=-4601.4464kcal/mol converged=True
C       -0.76519333      0.00435291     -0.00243987
C        0.76516445      0.00324411     -0.00292899
H       -1.15474358      0.65703441      0.77478120
H       -1.15301089      0.33383152     -0.96205623
H       -1.15109679     -0.99432688      0.18963232
H        1.15467312     -1.00784448     -0.09122804
H        1.15100011      0.41917220      0.92513779
H        1.15308978      0.59990006     -0.82350214
8
step=10 target=150.00deg measured=150.00deg E=-4602.3807kcal/mol converged=True
C       -0.76384007      0.00434864     -0.00264650
C        0.76381124      0.00343956     -0.00299575
H       -1.15450469      0.65718120      0.77477942
H       -1.15317000      0.33373931     -0.96230100
H       -1.15084606     -0.99448337      0.19001111
H        1.15439322     -0.95062966     -0.34997845
H        1.15058955      0.16445541      1.00150978
H        1.15344593      0.79216888     -0.64104400
8
step=11 target=165.00deg measured=165.00deg E=-4603.2855kcal/mol converged=True
C       -0.76084906      0.00379359     -0.00365769
C        0.76082043      0.00449317     -0.00253122
H       -1.14615207      0.65776008      0.77523731
H       -1.14898975      0.33495117     -0.96369444
H       -1.14207466     -0.99689534      0.19088488
H        1.14606049     -0.82885084     -0.58557177
H        1.14166287     -0.10169956      1.01149098
H        1.14939752      0.93168191     -0.41643550
8
step=12 target=180.00deg measured=180.00deg E=-4603.6099kcal/mol converged=True
C       -0.76084906      0.00379359     -0.00365769
C        0.76082043      0.00449317     -0.00253122
H       -1.14615207      0.65776008      0.77523731
H       -1.14898975      0.33495117     -0.96369444
H       -1.14207466     -0.99689534      0.19088488
H        1.14612301     -0.64947356     -0.78142650
H        1.14182779     -0.36045034      0.94941863
H        1.14917470      1.00729553     -0.16239447
8
step=13 target=195.00deg measured=195.00deg E=-4603.2761kcal/mol converged=True
C       -0.76200876     -0.00294653      0.00280026
C        0.76197995     -0.00420279      0.00085198
H       -1.14707472      0.65144001      0.78237783
H       -1.14850337      0.35932999     -0.94845951
H       -1.14458671     -1.00788782      0.16256298
H        1.14704882     -0.43466046     -0.92146395
H        1.14453829     -0.57328668      0.84440863
H        1.14849159      1.01106736      0.07402846
8
step=14 target=210.00deg measured=210.00deg E=-4602.3889kcal/mol converged=True
C       -0.76368989     -0.00487160      0.00373200
C        0.76366023     -0.00615884      0.00172904
H       -1.15065315      0.64774501      0.78121433
H       -1.14841904      0.36297432     -0.94475954
H       -1.15483705     -1.00563942      0.15966264
H        1.15073179     -0.18289842     -0.99780411
H        1.15440481     -0.76869798      0.66858828
H        1.14869350      0.95689528      0.32920081
8
step=15 target=225.00deg measured=225.00deg E=-4601.4463kcal/mol converged=True
C       -0.76441848     -0.00486137      0.00373585
C        0.76438882     -0.00615284      0.00172014
H       -1.15111272      0.64784769      0.78132931
H       -1.14873858      0.36291674     -0.94476513
H       -1.15544283     -1.00567066      0.15962395
H        1.15139928      0.08169654     -1.00957521
H        1.15459800     -0.91545819      0.44862326
H        1.14922637      0.83913865      0.56740378
8
step=16 target=240.00deg measured=240.00deg E=-4601.0364kcal/mol converged=True
C       -0.76708894     -0.00282118      0.00225989
C        0.76706194     -0.00373053      0.00240979
H       -1.15938502      0.64941227      0.77884370
H       -1.15658880      0.35479879     -0.94797919
H       -1.16495793     -1.00117050      0.16664415
H        1.15996905      0.34261058     -0.95051168
H        1.16371209     -0.99847083      0.18997944
H        1.15718447      0.65725076      0.77277691
8
step=17 target=255.00deg measured=255.00deg E=-4601.4476kcal/mol converged=True
C       -0.76538643      0.00312146     -0.00281901
C        0.76536685      0.00263374      0.00694660
H       -1.15449721      0.65674024      0.77311912
H       -1.15145407      0.33479698     -0.96255972
H       -1.15305186     -0.99454529      0.18974250
H        1.15521581      0.58525541     -0.82327864
H        1.15183250     -1.00853470     -0.09739561
H        1.15187994      0.41670323      0.93393771
8
step=18 target=270.00deg measured=270.00deg E=-4602.3819kcal/mol converged=True
C       -0.76380365      0.00325587     -0.00288753
C        0.76378400      0.00275372      0.00703746
H       -1.15463249      0.65710716      0.77326542
H       -1.15129590      0.33452443     -0.96278090
H       -1.15281895     -0.99478615      0.19002847
H        1.15427024      0.78130292     -0.64416401
H        1.15326540     -0.94662831     -0.35575221
H        1.15115829      0.16300318      1.00980617
8
step=19 target=285.00deg measured=285.00deg E=-4603.2858kcal/mol converged=True
C       -0.76080306      0.00388406     -0.00224098
C        0.76078176      0.00359099      0.00671667
H       -1.14949525      0.65833908      0.77493880
H       -1.14370289      0.33438594     -0.96429847
H       -1.14370441     -0.99669386      0.19018134
H        1.14772374      0.92577818     -0.42135855
H        1.14571020     -0.82141479     -0.58993309
H        1.14343157     -0.10212308      1.01854784
8
step=20 target=300.00deg measured=300.00deg E=-4603.6092kcal/mol converged=True
C       -0.76080306      0.00388406     -0.00224098
C        0.76078176      0.00359099      0.00671667
H       -1.14949525      0.65833908      0.77493880
H       -1.14370289      0.33438594     -0.96429847
H       -1.14370441     -0.99669386      0.19018134
H        1.14624761      1.00573456     -0.16800041
H        1.14688225     -0.63829777     -0.78303052
H        1.14374540     -0.35981712      0.95680722
8
step=21 target=315.00deg measured=315.00deg E=-4603.2833kcal/mol converged=True
C       -0.76204002     -0.00289310      0.00376435
C        0.76203524      0.00462309     -0.00227869
H       -1.15093751      0.64856310      0.78354277
H       -1.14519245      0.36118634     -0.94851097
H       -1.14445801     -1.00802642      0.16190310
H        1.14615175      1.01883087      0.08448053
H        1.14861743     -0.44110126     -0.91520225
H        1.14577612     -0.56443141      0.84336164
8
step=22 target=330.00deg measured=330.00deg E=-4602.3814kcal/mol converged=True
C       -0.76291709     -0.00294511      0.00372469
C        0.76291253      0.00457066     -0.00231201
H       -1.15097714      0.64827736      0.78321001
H       -1.14556820      0.36127181     -0.94784662
H       -1.14480332     -1.00772190      0.16153118
H        1.14750279      0.96107907      0.34331791
H        1.14738773     -0.19021178     -0.99958617
H        1.14643523     -0.76358083      0.66658060
8
step=23 target=345.00deg measured=345.00deg E=-4601.4569kcal/mol converged=True
C       -0.76566191     -0.00332364      0.00327236
C        0.76565842      0.00409086     -0.00264432
H       -1.15760313      0.64648296      0.78103143
H       -1.15570876      0.36122122     -0.94408901
H       -1.15459890     -1.00504086      0.15986138
H        1.15566901      0.83638806      0.57696692
H        1.15581106      0.07279145     -1.01372804
H        1.15641717     -0.90710289      0.44407326
