8
step=0 target=0.00deg measured=0.00deg E=-9667.6799kcal/mol converged=True
Cl       1.71271266     -0.68605693      0.09690604
C        0.69187346      0.71241612     -0.33183169
C       -0.69184976      0.70877349      0.33240561
Cl      -0.99076149     -0.69248192      1.39421793
H        0.59710456      0.69320321     -1.41673118
H        1.25762994      1.59429359     -0.03428078
H       -1.47803589      0.68347958     -0.42092931
H       -0.81976102      1.59194706      0.95683099
8
step=1 target=15.00deg measured=15.00deg E=-9668.2551kcal/mol converged=True
Cl       1.70919328     -0.68809016      0.10127984
C        0.69042418      0.71393958     -0.33159378
C       -0.69113896      0.71025880      0.32973956
Cl      -0.84159018     -0.43328846      1.69459256
H        0.58976891      0.69725069     -1.41596010
H        1.25938038      1.59391959     -0.02959439
H       -1.45992051      0.41497217     -0.38519030
H       -0.92161680      1.69681385      0.72966299
8
step=2 target=30.00deg measured=30.00deg E=-9669.7029kcal/mol converged=True
Cl       1.68766190     -0.68986113      0.11699575
C        0.68742133      0.71669954     -0.33001820
C       -0.68930115      0.70970747      0.32642650
Cl      -0.70755901     -0.09734878      1.91604067
H        0.57845313      0.70704429     -1.41305040
H        1.25822789      1.59263778     -0.02209045
H       -1.40746103      0.16626705     -0.28732733
H       -1.02971490      1.73252529      0.47699938
8
step=3 target=45.00deg measured=45.00deg E=-9671.3075kcal/mol converged=True
Cl       1.66164158     -0.69412920      0.14001567
C        0.68393587      0.72277036     -0.32910744
C       -0.68877254      0.70881393      0.31916553
Cl      -0.60750463      0.29151626      2.05200507
H        0.57627935      0.70869638     -1.41338536
H        1.25205135      1.59985078     -0.01830751
H       -1.33004815     -0.04163509     -0.14370250
H       -1.14284671      1.69592427      0.23557645
8
step=4 target=60.00deg measured=60.00deg E=-9672.3031kcal/mol converged=True
Cl       1.64484474     -0.69226857      0.15677069
C        0.68150431      0.72873475     -0.32710223
C       -0.68790470      0.70495642      0.31398715
Cl      -0.56771547      0.71238300      2.09363415
H        0.58445496      0.69997251     -1.41274867
H        1.24561932      1.60972307     -0.02408713
H       -1.23867185     -0.19341439      0.03879055
H       -1.24960592      1.59298971      0.02319621
8
step=5 target=75.00deg measured=75.00deg E=-9672.3394kcal/mol converged=True
Cl       1.64494855     -0.69249068      0.15696532
C        0.68219651      0.72873305     -0.32732459
C       -0.68853700      0.70490091      0.31430245
Cl      -0.59965414      1.14206683      2.04130336
H        0.58480289      0.69955388     -1.41290971
H        1.24554848      1.61032305     -0.02438297
H       -1.13275172     -0.28819488      0.26170029
H       -1.33844033      1.43310226     -0.17151090
8
step=6 target=90.00deg measured=90.00deg E=-9671.7448kcal/mol converged=True
Cl       1.65179430     -0.69261489      0.15640054
C        0.68545610      0.72910181     -0.32706553
C       -0.69071274      0.70374639      0.31629877
Cl      -0.68236236      1.54008018      1.89398121
H        0.59920625      0.68834936     -1.41387461
H        1.24644469      1.61694341     -0.03605095
H       -1.03094339     -0.31655461      0.49200306
H       -1.41381334      1.23061127     -0.30813701
8
step=7 target=105.00deg measured=105.00deg E=-9671.0401kcal/mol converged=True
Cl       1.65189606     -0.69238807      0.15607080
C        0.68636349      0.72917603     -0.32769701
C       -0.69177388      0.70372289      0.31661259
Cl      -0.80141966      1.88185200      1.65337630
H        0.59975559      0.68820458     -1.41356597
H        1.24655711      1.61660792     -0.03623253
H       -0.92081409     -0.27776819      0.72952554
H       -1.45607372      0.98679683     -0.40734172
8
step=8 target=120.00deg measured=120.00deg E=-9670.8193kcal/mol converged=True
Cl       1.65211143     -0.69142246      0.15103060
C        0.68742778      0.72895691     -0.33232145
C       -0.69591754      0.70397308      0.31468204
Cl      -0.95659688      2.14189225      1.33758888
H        0.61525493      0.69374200     -1.41823299
H        1.25378595      1.61104929     -0.03334412
H       -0.82215682     -0.16733770      0.95744607
H       -1.48284344      0.71776272     -0.43771837
8
step=9 target=135.00deg measured=135.00deg E=-9671.3715kcal/mol converged=True
Cl       1.63372759     -0.69541125      0.15487659
C        0.68211525      0.73072721     -0.33924074
C       -0.69751851      0.69971548      0.30667415
Cl      -1.11512995      2.30606056      0.96138129
H        0.62000940      0.71881039     -1.42650030
H        1.24715955      1.60422539     -0.01236693
H       -0.71799670      0.01032793      1.15128744
H       -1.47325067      0.42896890     -0.40831198
8
step=10 target=150.00deg measured=150.00deg E=-9672.4081kcal/mol converged=True
Cl       1.63315237     -0.69541834      0.15517822
C        0.68105137      0.73122750     -0.33923257
C       -0.69667904      0.69907958      0.30618481
Cl      -1.29922962      2.35856071      0.56916722
H        0.62005552      0.71913899     -1.42650579
H        1.24688333      1.60422882     -0.01209015
H       -0.65779675      0.22927009      1.28955805
H       -1.42575746      0.18496613     -0.31853271
8
step=11 target=165.00deg measured=165.00deg E=-9673.4236kcal/mol converged=True
Cl       1.61399736     -0.69287361      0.16392712
C        0.67669646      0.73780796     -0.34092456
C       -0.69267543      0.69232423      0.30716023
Cl      -1.46169453      2.29547949      0.16987392
H        0.61270379      0.72407725     -1.42839482
H        1.23723385      1.61251232     -0.00940739
H       -0.61409925      0.47251903      1.37242027
H       -1.34777873     -0.03106715     -0.17693665
8
step=12 target=180.00deg measured=180.00deg E=-9673.8131kcal/mol converged=True
Cl       1.61265424     -0.69402253      0.16920596
C        0.67669019      0.73930966     -0.33783365
C       -0.69043080      0.69391058      0.30898090
Cl      -1.62636653      2.12722263     -0.19805843
H        0.60832450      0.72097404     -1.42635657
H        1.23357932      1.61819536     -0.01728904
H       -0.61227631      0.72725873      1.39435680
H       -1.25108443     -0.19108791      0.00500298
8
step=13 target=195.00deg measured=195.00deg E=-9673.4231kcal/mol converged=True
Cl       1.61895308     -0.68806002      0.17240837
C        0.68104105      0.74257822     -0.33238640
C       -0.69008193      0.69986497      0.31414246
Cl      -1.76841857      1.85960151     -0.50651558
H        0.60400356      0.69762627     -1.41932343
H        1.24246920      1.62792567     -0.03620897
H       -0.65113453      0.97240751      1.36820563
H       -1.14642293     -0.28418791      0.20142787
8
step=14 target=210.00deg measured=210.00deg E=-9672.4198kcal/mol converged=True
Cl       1.62293257     -0.68823590      0.17277582
C        0.68411921      0.74067334     -0.33121466
C       -0.69302384      0.70206011      0.31326659
Cl      -1.87519083      1.51042059     -0.74793555
H        0.60431819      0.69648927     -1.41839915
H        1.24349880      1.62769681     -0.03839073
H       -0.70445688      1.21213155      1.27512959
H       -1.03401908     -0.32688772      0.43682226
8
step=15 target=225.00deg measured=225.00deg E=-9671.3695kcal/mol converged=True
Cl       1.63924549     -0.68838171      0.16946215
C        0.68743618      0.73675989     -0.32838655
C       -0.69668156      0.70466269      0.30959001
Cl      -1.95052387      1.10722852     -0.89487025
H        0.61154359      0.69342239     -1.41459134
H        1.25025349      1.62423149     -0.04069769
H       -0.78672233      1.41813005      1.12811039
H       -0.92895474     -0.29542216      0.67477594
8
step=16 target=240.00deg measured=240.00deg E=-9670.8193kcal/mol converged=True
Cl       1.65147383     -0.68526966      0.16051664
C        0.68739587      0.73485740     -0.32893165
C       -0.69741246      0.70327563      0.30837811
Cl      -1.97602229      0.67274809     -0.93652133
H        0.62128252      0.69578982     -1.41685653
H        1.25298363      1.61514855     -0.02872545
H       -0.88153568      1.58178893      0.92421500
H       -0.83524113     -0.19828178      0.90643610
8
step=17 target=255.00deg measured=255.00deg E=-9671.0336kcal/mol converged=True
Cl       1.65428022     -0.69267576      0.15543374
C        0.68506877      0.72683524     -0.33130466
C       -0.69739102      0.69532765      0.30482533
Cl      -1.94749330      0.23450906     -0.88530628
H        0.61943072      0.71569413     -1.41804485
H        1.23969804      1.60916385     -0.01005223
H       -0.97313759      1.68067410      0.68213730
H       -0.74165199     -0.02910233      1.11642558
8
step=18 target=270.00deg measured=270.00deg E=-9671.7407kcal/mol converged=True
Cl       1.65011964     -0.69063135      0.15175314
C        0.68180520      0.72752758     -0.33256364
C       -0.69417284      0.69483429      0.30610931
Cl      -1.86435990     -0.16579608     -0.72983841
H        0.61877300      0.71655172     -1.42002305
H        1.23617329      1.60625084     -0.00184707
H       -1.08103275      1.70631455      0.43297114
H       -0.67761736      0.18105926      1.26653306
8
step=19 target=285.00deg measured=285.00deg E=-9672.3524kcal/mol converged=True
Cl       1.64890677     -0.69276922      0.15275231
C        0.68018180      0.72723535     -0.33225016
C       -0.69252860      0.69454117      0.30572932
Cl      -1.74378632     -0.50951504     -0.49133771
H        0.61622856      0.71699952     -1.42026119
H        1.23263580      1.60817588     -0.00005795
H       -1.18691126      1.66126970      0.19326159
H       -0.63737201      0.42571799      1.36055791
8
step=20 target=300.00deg measured=300.00deg E=-9672.3040kcal/mol converged=True
Cl       1.64676403     -0.69069763      0.15627611
C        0.68169011      0.72739424     -0.33088250
C       -0.69408900      0.69458832      0.30436214
Cl      -1.59000519     -0.76843162     -0.18179485
H        0.61244401      0.70865173     -1.41878002
H        1.22261565      1.61395460     -0.00238602
H       -1.27685538      1.55398089     -0.02473585
H       -0.62401008      0.67996242      1.39226245
8
step=21 target=315.00deg measured=315.00deg E=-9671.3147kcal/mol converged=True
Cl       1.66759579     -0.68381476      0.15418877
C        0.68550048      0.72779690     -0.32669807
C       -0.69781521      0.69341706      0.30026715
Cl      -1.43958170     -0.92661363      0.18340499
H        0.62011295      0.69590419     -1.41505435
H        1.22485943      1.62158102     -0.01294750
H       -1.36350034      1.39335459     -0.20484989
H       -0.64857469      0.92905009      1.36415552
8
step=22 target=330.00deg measured=330.00deg E=-9669.7073kcal/mol converged=True
Cl       1.69840843     -0.67253959      0.14219064
C        0.69167508      0.72507352     -0.32370590
C       -0.70290123      0.68818643      0.29921958
Cl      -1.29451424     -0.97137961      0.58162746
H        0.62765411      0.68888985     -1.41238673
H        1.22557999      1.62361128     -0.01711399
H       -1.42594379      1.18250532     -0.34830268
H       -0.69907080      1.16760808      1.27941186
8
step=23 target=345.00deg measured=345.00deg E=-9668.2594kcal/mol converged=True
Cl       1.72438593     -0.66522810      0.12793928
C        0.69542698      0.72186123     -0.32274092
C       -0.70522835      0.68409478      0.30102659
Cl      -1.15112124     -0.90551967      0.97938885
H        0.63071622      0.69055401     -1.41065701
H        1.22851779      1.62089480     -0.01598106
H       -1.46306874      0.93249263     -0.44094596
H       -0.77107585      1.38195372      1.13612213
