[Molden Format]
[Title]
[Atoms] AU
C      1     6  0.18752508225058E+01  0.13624547413288E+01 -0.32840605456716E+01
C      2     6  0.18752508225058E+01 -0.13624547413288E+01 -0.32840605456716E+01
C      3     6 -0.71628179027613E+00 -0.22044978051985E+01 -0.32840605456716E+01
C      4     6 -0.23179380644594E+01  0.00000000000000E+00 -0.32840605456716E+01
C      5     6 -0.71628179027613E+00  0.22044978051985E+01 -0.32840605456716E+01
H      6     1  0.35276840376577E+01  0.25630166455615E+01 -0.32695285517733E+01
H      7     1  0.35276840376577E+01 -0.25630166455615E+01 -0.32695285517733E+01
H      8     1 -0.13474503158994E+01 -0.41470417750020E+01 -0.32695285517733E+01
H      9     1 -0.43604485462554E+01  0.00000000000000E+00 -0.32695285517733E+01
H     10     1 -0.13474503158994E+01  0.41470417750020E+01 -0.32695285517733E+01
Fe    11    26 -0.00000000000000E+00 -0.00000000000000E+00 -0.00000000000000E+00
C     12     6 -0.18752508225058E+01 -0.13624547413288E+01  0.32840605456716E+01
C     13     6 -0.18752508225058E+01  0.13624547413288E+01  0.32840605456716E+01
C     14     6  0.71628179027613E+00  0.22044978051985E+01  0.32840605456716E+01
C     15     6  0.23179380644594E+01 -0.00000000000000E+00  0.32840605456716E+01
C     16     6  0.71628179027613E+00 -0.22044978051985E+01  0.32840605456716E+01
H     17     1 -0.35276840376577E+01 -0.25630166455615E+01  0.32695285517733E+01
H     18     1 -0.35276840376577E+01  0.25630166455615E+01  0.32695285517733E+01
H     19     1  0.13474503158994E+01  0.41470417750020E+01  0.32695285517733E+01
H     20     1  0.43604485462554E+01 -0.00000000000000E+00  0.32695285517733E+01
H     21     1  0.13474503158994E+01 -0.41470417750020E+01  0.32695285517733E+01
[GTO]
           1 0
 s           4   1.0000000000000000     
   51.049363095579913      -0.16312063210127389     
   8.7911227406887544      -0.19911024581000730     
  0.70640422258929825       0.31882047753655751     
  0.26922813413411617       0.12706504184240380     
 p           4   1.0000000000000000     
   5.8263656140800002       0.73716451545209605     
   1.5106896018720002       0.68216371614850257     
  0.53256483288000001       0.35783053929253711     
  0.21202323690600003        5.3983030275847881E-002

           2 0
 s           4   1.0000000000000000     
   51.049363095579913      -0.16312063210127389     
   8.7911227406887544      -0.19911024581000730     
  0.70640422258929825       0.31882047753655751     
  0.26922813413411617       0.12706504184240380     
 p           4   1.0000000000000000     
   5.8263656140800002       0.73716451545209605     
   1.5106896018720002       0.68216371614850257     
  0.53256483288000001       0.35783053929253711     
  0.21202323690600003        5.3983030275847881E-002

           3 0
 s           4   1.0000000000000000     
   51.049363095579913      -0.16312063210127389     
   8.7911227406887544      -0.19911024581000730     
  0.70640422258929825       0.31882047753655751     
  0.26922813413411617       0.12706504184240380     
 p           4   1.0000000000000000     
   5.8263656140800002       0.73716451545209605     
   1.5106896018720002       0.68216371614850257     
  0.53256483288000001       0.35783053929253711     
  0.21202323690600003        5.3983030275847881E-002

           4 0
 s           4   1.0000000000000000     
   51.049363095579913      -0.16312063210127389     
   8.7911227406887544      -0.19911024581000730     
  0.70640422258929825       0.31882047753655751     
  0.26922813413411617       0.12706504184240380     
 p           4   1.0000000000000000     
   5.8263656140800002       0.73716451545209605     
   1.5106896018720002       0.68216371614850257     
  0.53256483288000001       0.35783053929253711     
  0.21202323690600003        5.3983030275847881E-002

           5 0
 s           4   1.0000000000000000     
   51.049363095579913      -0.16312063210127389     
   8.7911227406887544      -0.19911024581000730     
  0.70640422258929825       0.31882047753655751     
  0.26922813413411617       0.12706504184240380     
 p           4   1.0000000000000000     
   5.8263656140800002       0.73716451545209605     
   1.5106896018720002       0.68216371614850257     
  0.53256483288000001       0.35783053929253711     
  0.21202323690600003        5.3983030275847881E-002

           6 0
 s           3   1.0000000000000000     
   3.3702276975336001       0.27359110588908298     
  0.61389118221497996       0.26460540653860526     
  0.16614291148415999        8.2465947534082318E-002

           7 0
 s           3   1.0000000000000000     
   3.3702276975336001       0.27359110588908298     
  0.61389118221497996       0.26460540653860526     
  0.16614291148415999        8.2465947534082318E-002

           8 0
 s           3   1.0000000000000000     
   3.3702276975336001       0.27359110588908298     
  0.61389118221497996       0.26460540653860526     
  0.16614291148415999        8.2465947534082318E-002

           9 0
 s           3   1.0000000000000000     
   3.3702276975336001       0.27359110588908298     
  0.61389118221497996       0.26460540653860526     
  0.16614291148415999        8.2465947534082318E-002

          10 0
 s           3   1.0000000000000000     
   3.3702276975336001       0.27359110588908298     
  0.61389118221497996       0.26460540653860526     
  0.16614291148415999        8.2465947534082318E-002

          11 0
 d           3   1.0000000000000000     
   1.9097284056068595       0.86123337497982078     
  0.59879816752509318       0.39233450236476580     
  0.23324664383551713        5.2271843589666030E-002
 s           4   1.0000000000000000     
  0.33890443730507491       -3.5477315373264193E-002
  0.17385400358364450       -5.4600427324903063E-002
   5.3112073797143146E-002   7.0254894937927317E-002
   2.9571878021481552E-002   1.7878941350210724E-002
 p           4   1.0000000000000000     
   2.5010806535903765       -2.7057806256651110E-002
  0.72515527904784138       -5.7357803326340752E-002
  0.12656406788646482        6.9420869019116579E-002
   6.2103957630462676E-002   1.8197741520476433E-002

          12 0
 s           4   1.0000000000000000     
   51.049363095579913      -0.16312063210127389     
   8.7911227406887544      -0.19911024581000730     
  0.70640422258929825       0.31882047753655751     
  0.26922813413411617       0.12706504184240380     
 p           4   1.0000000000000000     
   5.8263656140800002       0.73716451545209605     
   1.5106896018720002       0.68216371614850257     
  0.53256483288000001       0.35783053929253711     
  0.21202323690600003        5.3983030275847881E-002

          13 0
 s           4   1.0000000000000000     
   51.049363095579913      -0.16312063210127389     
   8.7911227406887544      -0.19911024581000730     
  0.70640422258929825       0.31882047753655751     
  0.26922813413411617       0.12706504184240380     
 p           4   1.0000000000000000     
   5.8263656140800002       0.73716451545209605     
   1.5106896018720002       0.68216371614850257     
  0.53256483288000001       0.35783053929253711     
  0.21202323690600003        5.3983030275847881E-002

          14 0
 s           4   1.0000000000000000     
   51.049363095579913      -0.16312063210127389     
   8.7911227406887544      -0.19911024581000730     
  0.70640422258929825       0.31882047753655751     
  0.26922813413411617       0.12706504184240380     
 p           4   1.0000000000000000     
   5.8263656140800002       0.73716451545209605     
   1.5106896018720002       0.68216371614850257     
  0.53256483288000001       0.35783053929253711     
  0.21202323690600003        5.3983030275847881E-002

          15 0
 s           4   1.0000000000000000     
   51.049363095579913      -0.16312063210127389     
   8.7911227406887544      -0.19911024581000730     
  0.70640422258929825       0.31882047753655751     
  0.26922813413411617       0.12706504184240380     
 p           4   1.0000000000000000     
   5.8263656140800002       0.73716451545209605     
   1.5106896018720002       0.68216371614850257     
  0.53256483288000001       0.35783053929253711     
  0.21202323690600003        5.3983030275847881E-002

          16 0
 s           4   1.0000000000000000     
   51.049363095579913      -0.16312063210127389     
   8.7911227406887544      -0.19911024581000730     
  0.70640422258929825       0.31882047753655751     
  0.26922813413411617       0.12706504184240380     
 p           4   1.0000000000000000     
   5.8263656140800002       0.73716451545209605     
   1.5106896018720002       0.68216371614850257     
  0.53256483288000001       0.35783053929253711     
  0.21202323690600003        5.3983030275847881E-002

          17 0
 s           3   1.0000000000000000     
   3.3702276975336001       0.27359110588908298     
  0.61389118221497996       0.26460540653860526     
  0.16614291148415999        8.2465947534082318E-002

          18 0
 s           3   1.0000000000000000     
   3.3702276975336001       0.27359110588908298     
  0.61389118221497996       0.26460540653860526     
  0.16614291148415999        8.2465947534082318E-002

          19 0
 s           3   1.0000000000000000     
   3.3702276975336001       0.27359110588908298     
  0.61389118221497996       0.26460540653860526     
  0.16614291148415999        8.2465947534082318E-002

          20 0
 s           3   1.0000000000000000     
   3.3702276975336001       0.27359110588908298     
  0.61389118221497996       0.26460540653860526     
  0.16614291148415999        8.2465947534082318E-002

          21 0
 s           3   1.0000000000000000     
   3.3702276975336001       0.27359110588908298     
  0.61389118221497996       0.26460540653860526     
  0.16614291148415999        8.2465947534082318E-002

[MO]
Sym=     1a
Ene=  -0.65866051022379024     
Spin= Alpha
Occup=     2.00000000
           1  0.17687530418346564     
           2  -5.0781853373281685E-002
           3  -3.6894704371992548E-002
           4  -5.5832093344186174E-003
           5  0.17687530418347019     
           6  -5.0781853373282913E-002
           7   3.6894704371989016E-002
           8  -5.5832093344187605E-003
           9  0.17687575665841557     
          10   1.9396981473214888E-002
          11   5.9697325651479553E-002
          12  -5.5832043780433445E-003
          13  0.17687534654273301     
          14   6.2769407697218171E-002
          15  -2.3470660413775306E-015
          16  -5.5832285883523659E-003
          17  0.17687575665840502     
          18   1.9396981473213826E-002
          19  -5.9697325651480233E-002
          20  -5.5832043780430600E-003
          21   2.6233491919404352E-002
          22   2.6233491919406285E-002
          23   2.6233923078693905E-002
          24   2.6233795302303915E-002
          25   2.6233923078689231E-002
          26   3.3805711311339751E-014
          27   3.4025199753687826E-014
          28  -6.7830911065027578E-014
          29  -3.0989321188592854E-016
          30   3.5652391201117016E-015
          31  -1.5048080901101242E-015
          32  -1.1604741814594517E-013
          33  -1.8959754092834785E-007
          34  -3.6692654115373659E-015
          35 -0.19393496310100772     
          36 -0.17687530418305730     
          37  -5.0781853373158534E-002
          38  -3.6894704371887611E-002
          39  -5.5832093344433337E-003
          40 -0.17687530418304415     
          41  -5.0781853373151768E-002
          42   3.6894704371890852E-002
          43  -5.5832093344432374E-003
          44 -0.17687575665802055     
          45   1.9396981473151016E-002
          46   5.9697325651334447E-002
          47  -5.5832043780676393E-003
          48 -0.17687534654239123     
          49   6.2769407697069998E-002
          50   4.6332171511758868E-015
          51  -5.5832285883763606E-003
          52 -0.17687575665804856     
          53   1.9396981473155245E-002
          54  -5.9697325651341830E-002
          55  -5.5832043780673253E-003
          56  -2.6233491919308551E-002
          57  -2.6233491919306136E-002
          58  -2.6233923078600740E-002
          59  -2.6233795302223948E-002
          60  -2.6233923078605174E-002
Sym=     2a
Ene=  -0.63717807536871629     
Spin= Alpha
Occup=     2.00000000
           1  0.22253007383151749     
           2  -7.2298962114302451E-002
           3  -5.2527661273832064E-002
           4   1.4832340926297288E-002
           5  0.22253007383151505     
           6  -7.2298962114301549E-002
           7   5.2527661273833619E-002
           8   1.4832340926297248E-002
           9  0.22253043947080217     
          10   2.7615930502490157E-002
          11   8.4992054353478841E-002
          12   1.4832340632157957E-002
          13  0.22252974274587556     
          14   8.9365889681485539E-002
          15   7.7722514812829704E-016
          16   1.4832319412127716E-002
          17  0.22253043947080306     
          18   2.7615930502490987E-002
          19  -8.4992054353478660E-002
          20   1.4832340632158478E-002
          21   5.4148086630474913E-002
          22   5.4148086630472998E-002
          23   5.4148511243810517E-002
          24   5.4148372014519421E-002
          25   5.4148511243812633E-002
          26   3.4889421610810149E-002
          27   3.4889140849522431E-002
          28  -6.9778562460332580E-002
          29   9.5038934485968700E-017
          30   4.5149618504749575E-008
          31   6.8553042462666574E-015
          32 -0.12398849221927558     
          33   1.5362829715606965E-014
          34  -7.4197128436346667E-015
          35   1.7823966787657794E-013
          36  0.22253007383177806     
          37   7.2298962114394197E-002
          38   5.2527661273865482E-002
          39  -1.4832340926287218E-002
          40  0.22253007383173884     
          41   7.2298962114376933E-002
          42  -5.2527661273882538E-002
          43  -1.4832340926286734E-002
          44  0.22253043947108742     
          45  -2.7615930502489217E-002
          46  -8.4992054353581509E-002
          47  -1.4832340632148980E-002
          48  0.22252974274625509     
          49  -8.9365889681594257E-002
          50  -1.5320266920171019E-014
          51  -1.4832319412120100E-002
          52  0.22253043947115855     
          53  -2.7615930502499716E-002
          54   8.4992054353586921E-002
          55  -1.4832340632149952E-002
          56   5.4148086630516061E-002
          57   5.4148086630503710E-002
          58   5.4148511243857257E-002
          59   5.4148372014593847E-002
          60   5.4148511243879052E-002
Sym=     3a
Ene=  -0.59767352240088267     
Spin= Alpha
Occup=     2.00000000
           1  0.15778878756029246     
           2  -5.5752196435141024E-002
           3   8.2762820639078055E-002
           4   3.3775674892789899E-003
           5 -0.15778878763580453     
           6   5.5752196418945847E-002
           7   8.2762820619697072E-002
           8  -3.3775674908949806E-003
           9 -0.25530777078311084     
          10  -3.4456786713076441E-002
          11   1.7222650099936589E-002
          12  -5.4650311038307049E-003
          13   4.6700345229379462E-011
          14  -1.0419661678682629E-012
          15  0.12326870028804049     
          16   1.0000841678626070E-012
          17  0.25530777081198552     
          18   3.4456786674098051E-002
          19   1.7222650087935013E-002
          20   5.4650311044490626E-003
          21   6.0953851128820680E-002
          22  -6.0953851157997049E-002
          23  -9.8626358230005859E-002
          24   1.8038587263441918E-011
          25   9.8626358241151554E-002
          26   1.1265496819792842E-015
          27   2.6425260506861002E-015
          28  -3.7690757326653844E-015
          29  -1.5671337681925023E-015
          30   4.6887845141490400E-016
          31   4.9219055550543549E-014
          32  -5.4023480550882841E-015
          33  -2.4180154121613263E-011
          34  0.13902570429241701     
          35   1.0485431975066762E-014
          36 -0.15778878755980996     
          37  -5.5752196434979785E-002
          38   8.2762820638848322E-002
          39   3.3775674892764086E-003
          40  0.15778878763539539     
          41   5.5752196418790874E-002
          42   8.2762820619431465E-002
          43  -3.3775674908942837E-003
          44  0.25530777078245454     
          45  -3.4456786712963178E-002
          46   1.7222650099870524E-002
          47  -5.4650311038299754E-003
          48  -4.6668022318526440E-011
          49  -1.0511058663594791E-012
          50  0.12326870028772235     
          51   9.9847003658414214E-013
          52 -0.25530777081131223     
          53   3.4456786673979452E-002
          54   1.7222650087911229E-002
          55   5.4650311044469845E-003
          56  -6.0953851128635064E-002
          57   6.0953851157829642E-002
          58   9.8626358229747815E-002
          59  -1.8028556886605696E-011
          60  -9.8626358240905876E-002
Sym=     4a
Ene=  -0.59767285658357794     
Spin= Alpha
Occup=     2.00000000
           1 -0.21717773181995889     
           2  -4.6533227607954260E-002
           3   5.5751566581729049E-002
           4  -4.6488396585836781E-003
           5 -0.21717773176506636     
           6  -4.6533227627350127E-002
           7  -5.5751566610519984E-002
           8  -4.6488396574090813E-003
           9   8.2954032608890768E-002
          10 -0.11207406930497013     
          11   3.4456274211221355E-002
          12   1.7757051258344380E-003
          13  0.26844638676238608     
          14  -6.0281188218945566E-003
          15  -2.1444049687680018E-011
          16   5.7462649406251473E-003
          17   8.2954032520069082E-002
          18 -0.11207406931695543     
          19  -3.4456274217213097E-002
          20   1.7757051239331897E-003
          21  -8.3896439347231511E-002
          22  -8.3896439326028180E-002
          23   3.2045736099310405E-002
          24  0.10370260140862748     
          25   3.2045736064996569E-002
          26   5.6784972519612194E-015
          27   2.5127838934794255E-015
          28  -8.1912811454406449E-015
          29  -6.1814833942509927E-016
          30  -4.7979356072393687E-014
          31  -9.9628447603717920E-016
          32  -1.1080459935121478E-014
          33 -0.13902578847293445     
          34  -2.4180208375544882E-011
          35   7.0696665027312174E-009
          36  0.21717773181944736     
          37  -4.6533227607790051E-002
          38   5.5751566581576775E-002
          39  -4.6488396585846678E-003
          40  0.21717773176454599     
          41  -4.6533227627178229E-002
          42  -5.5751566610369431E-002
          43  -4.6488396574097760E-003
          44  -8.2954032608582362E-002
          45 -0.11207406930467292     
          46   3.4456274211107550E-002
          47   1.7757051258303620E-003
          48 -0.26844638676167942     
          49  -6.0281188219277687E-003
          50  -2.1428215794952419E-011
          51   5.7462649406218895E-003
          52  -8.2954032519799145E-002
          53 -0.11207406931668061     
          54  -3.4456274217099271E-002
          55   1.7757051239296556E-003
          56   8.3896439347021678E-002
          57   8.3896439325811006E-002
          58  -3.2045736099198280E-002
          59 -0.10370260140837757     
          60  -3.2045736064904247E-002
Sym=     5a
Ene=  -0.58317070647569524     
Spin= Alpha
Occup=     2.00000000
           1  0.17056392261997502     
           2  -6.2958338503449535E-002
           3   9.4669435805478291E-002
           4  -1.6718013997963190E-004
           5 -0.17056392279511803     
           6   6.2958338463353442E-002
           7   9.4669435758506934E-002
           8   1.6718014015240624E-004
           9 -0.27597839473857799     
          10  -3.8910463600215814E-002
          11   2.0658033720328678E-002
          12   2.7051733322163937E-004
          13   1.0823146946755028E-010
          14  -2.9947696059047726E-012
          15  0.14041075641997486     
          16  -1.0521909346392383E-013
          17  0.27597839480545788     
          18   3.8910463504897956E-002
          19   2.0658033691308576E-002
          20  -2.7051733328515123E-004
          21   6.9547718461419092E-002
          22  -6.9547718532829178E-002
          23 -0.11253164711725495     
          24   4.4135108324754678E-011
          25  0.11253164714452969     
          26   2.0027096347550419E-015
          27  -2.1372684574628297E-015
          28   1.3455882270778766E-016
          29  -1.0255153647014546E-008
          30  -1.2892015915565845E-011
          31   3.4564627764221943E-002
          32  -7.0623904277276127E-015
          33  -3.1463703336596897E-015
          34  -1.7978397872378311E-013
          35  -6.0656794731360105E-015
          36  0.17056392262031653     
          37   6.2958338503580583E-002
          38  -9.4669435805670180E-002
          39   1.6718013996615630E-004
          40 -0.17056392279546978     
          41  -6.2958338463484392E-002
          42  -9.4669435758674203E-002
          43  -1.6718014013870647E-004
          44 -0.27597839473920499     
          45   3.8910463600263782E-002
          46  -2.0658033720355701E-002
          47  -2.7051733319957135E-004
          48   1.0819297897161802E-010
          49   2.9961583146696700E-012
          50 -0.14041075642030471     
          51   1.0584694383760687E-013
          52  0.27597839480609587     
          53  -3.8910463504963057E-002
          54  -2.0658033691376452E-002
          55   2.7051733326468355E-004
          56   6.9547718461558647E-002
          57  -6.9547718532964611E-002
          58 -0.11253164711750896     
          59   4.4121013503728205E-011
          60  0.11253164714480798     
Sym=     6a
Ene=  -0.58317001300228644     
Spin= Alpha
Occup=     2.00000000
           1 -0.23476102081359615     
           2  -5.3757061916772673E-002
           3   6.2957464245310554E-002
           4   2.3012742574926261E-004
           5 -0.23476102068636431     
           6  -5.3757061963734358E-002
           7  -6.2957464315928247E-002
           8   2.3012742562419466E-004
           9   8.9670340240892391E-002
          10 -0.12776918579234342     
          11   3.8909850437562885E-002
          12  -8.7929910715762750E-005
          13  0.29018094103415487     
          14  -8.0166709411793862E-003
          15  -5.2367522046857565E-011
          16  -2.8449216177267708E-004
          17   8.9670340035032714E-002
          18 -0.12776918582136909     
          19  -3.8909850452972537E-002
          20  -8.7929910513385545E-005
          21  -9.5724954345635521E-002
          22  -9.5724954293755896E-002
          23   3.6563849230779259E-002
          24  0.11832373116464105     
          25   3.6563849146838870E-002
          26  -1.2147266052258879E-007
          27  -3.1967349245194147E-008
          28   1.5344000976778294E-007
          29   2.7485849243825287E-015
          30  -3.4564202617843182E-002
          31  -1.2891811790532512E-011
          32   9.4145578265016167E-008
          33   1.7312459138554542E-013
          34   1.9663805739937552E-015
          35  -1.2850106191941126E-014
          36 -0.23476102081412101     
          37   5.3757061916845435E-002
          38  -6.2957464245415637E-002
          39  -2.3012742573124206E-004
          40 -0.23476102068685265     
          41   5.3757061963806557E-002
          42   6.2957464316049594E-002
          43  -2.3012742560622325E-004
          44   8.9670340241033292E-002
          45  0.12776918579260096     
          46  -3.8909850437636950E-002
          47   8.7929910708762788E-005
          48  0.29018094103480108     
          49   8.0166709412370883E-003
          50   5.2359513561927317E-011
          51   2.8449216175110742E-004
          52   8.9670340035177321E-002
          53  0.12776918582165914     
          54   3.8909850453048789E-002
          55   8.7929910506589590E-005
          56  -9.5724954345841232E-002
          57  -9.5724954293942177E-002
          58   3.6563849230839940E-002
          59  0.11832373116493029     
          60   3.6563849146905934E-002
Sym=     7a
Ene=  -0.53366713713473479     
Spin= Alpha
Occup=     2.00000000
           1  -6.6047747704333790E-002
           2 -0.13058353124289809     
           3  0.11949079209520426     
           4  -2.3981142306960489E-004
           5  -6.6047746816395164E-002
           6 -0.13058353100241379     
           7 -0.11949079257417503     
           8  -2.3981141984191184E-004
           9  0.17291699901050872     
          10   7.3285094883825272E-002
          11 -0.12130009600426084     
          12   6.2849775214230959E-004
          13 -0.21373426554056996     
          14  0.11459554239353960     
          15   3.9826592394843523E-010
          16  -7.7646059178651148E-004
          17  0.17291699955927811     
          18   7.3285094180028210E-002
          19  0.12130009608496188     
          20   6.2849775413995220E-004
          21  -5.4367865495844915E-002
          22  -5.4367864764895510E-002
          23  0.14234778679512519     
          24 -0.17594381326886616     
          25  0.14234778724687283     
          26   1.6953251563167848E-002
          27  -1.6953781793584866E-002
          28   5.3023041701897336E-007
          29   4.2767806592024905E-011
          30  -7.9249317753512988E-008
          31   3.5402323450802850E-015
          32  -9.5775358531332918E-007
          33   1.0789241503519485E-014
          34   5.8541436670737112E-015
          35  -3.0344152506416873E-016
          36  -6.6047747702470239E-002
          37  0.13058353123870403     
          38 -0.11949079209115329     
          39   2.3981142308523011E-004
          40  -6.6047746814006519E-002
          41  0.13058353099808728     
          42  0.11949079257040145     
          43   2.3981141985828419E-004
          44  0.17291699900473567     
          45  -7.3285094881598234E-002
          46  0.12130009600025708     
          47  -6.2849775218411057E-004
          48 -0.21373426553355820     
          49 -0.11459554238983732     
          50  -3.9846531328894758E-010
          51   7.7646059183154306E-004
          52  0.17291699955378056     
          53  -7.3285094177419186E-002
          54 -0.12130009608102750     
          55  -6.2849775417631135E-004
          56  -5.4367865494314410E-002
          57  -5.4367864762942544E-002
          58  0.14234778679039167     
          59 -0.17594381326317873     
          60  0.14234778724239217     
Sym=     8a
Ene=  -0.53366689015165514     
Spin= Alpha
Occup=     2.00000000
           1 -0.20327521779635349     
           2  -5.5053866882644846E-002
           3 -0.10965036342844223     
           4  -7.3862949054185831E-004
           5  0.20327521808503768     
           6   5.5053867453392205E-002
           7 -0.10965036290617707     
           8   7.3862949158803989E-004
           9 -0.12563051410056134     
          10  0.16111990855527136     
          11   1.8475795890461572E-002
          12  -4.5649868184621182E-004
          13   4.6708663147998800E-010
          14  -2.5043378922972736E-010
          15  0.18234955117754492     
          16   1.6969730280173260E-012
          17  0.12563051334478315     
          18 -0.16111990887557712     
          19   1.8475795360289662E-002
          20   4.5649867910296354E-004
          21 -0.16733550400857805     
          22  0.16733550424620899     
          23 -0.10341948966756852     
          24   3.8450166277606489E-010
          25  0.10341948904540098     
          26  -3.7037791334282665E-011
          27   3.7038297006708514E-011
          28  -5.0567242584626350E-016
          29   1.9576098408583504E-002
          30  -3.2422374881168739E-015
          31   7.9619976235007915E-008
          32   8.2494526669550780E-016
          33  -4.7864270934736146E-015
          34   1.0244746767813072E-014
          35   5.5590635645660717E-016
          36 -0.20327521778898353     
          37   5.5053866880770345E-002
          38  0.10965036342427871     
          39   7.3862949059188198E-004
          40  0.20327521807751178     
          41  -5.5053867451186976E-002
          42  0.10965036290232331     
          43  -7.3862949164028478E-004
          44 -0.12563051409567713     
          45 -0.16111990854948799     
          46  -1.8475795889593610E-002
          47   4.5649868187775441E-004
          48   4.6677421186015008E-010
          49   2.5027960978209556E-010
          50 -0.18234955117088747     
          51  -1.6965285826967607E-012
          52  0.12563051334037520     
          53  0.16111990886960867     
          54  -1.8475795359780976E-002
          55  -4.5649867912983012E-004
          56 -0.16733550400254690     
          57  0.16733550424004770     
          58 -0.10341948966357968     
          59   3.8425437768783659E-010
          60  0.10341948904182449     
Sym=     9a
Ene=  -0.53266936925509456     
Spin= Alpha
Occup=     2.00000000
           1  -6.6228041504394583E-002
           2 -0.13037321762498300     
           3  0.11906167312534403     
           4   4.3414145450901802E-004
           5  -6.6228040520357884E-002
           6 -0.13037321735777446     
           7 -0.11906167365482168     
           8   4.3414144806164825E-004
           9  0.17338884328680276     
          10   7.2942480101069407E-002
          11 -0.12141345648726215     
          12  -1.1367447968918104E-003
          13 -0.21431810629111109     
          14  0.11486043272239099     
          15   4.3898047856821125E-010
          16   1.4050893500231368E-003
          17  0.17338884389498618     
          18   7.2942479324827669E-002