[Molden Format]
[Title]
[Atoms] AU
O      1     8 -0.22132472371555E+01  0.56635091954875E+00  0.00000000000000E+00
C      2     6 -0.87494319569926E-01 -0.10705298495975E+01  0.00000000000000E+00
C      3     6  0.23007415567254E+01  0.50417893004873E+00  0.00000000000000E+00
H      4     1 -0.18103576273864E+00 -0.22903480630400E+01  0.16665494693028E+01
H      5     1 -0.17990192706387E+00 -0.22559550475719E+01 -0.16905489910854E+01
H      6     1  0.39778734923260E+01 -0.70297811835880E+00 -0.33448152405782E-01
H      7     1  0.23481736824534E+01  0.17587681041842E+01 -0.16448176188696E+01
H      8     1  0.23840784788211E+01  0.17105800880064E+01  0.16792106343377E+01
H      9     1 -0.21336897673089E+01  0.15805669306325E+01  0.15304891883301E+01
[GTO]
           1 0
 s           4   1.0000000000000000     
   69.137961906196551      -0.20478756370077797     
   11.906129132707308      -0.24997023136827334     
  0.95670827744340703       0.40025880240639616     
  0.36462520496073686       0.15952206667693555     
 p           4   1.0000000000000000     
   8.2124193257781641        1.1321556799186829     
   2.1293576997098116        1.0476840782254817     
  0.75066448202360914       0.54956508217158984     
  0.29885246543283073        8.2908486592766617E-002

           2 0
 s           4   1.0000000000000000     
   51.049363095579913      -0.16312063210127389     
   8.7911227406887544      -0.19911024581000730     
  0.70640422258929825       0.31882047753655751     
  0.26922813413411617       0.12706504184240380     
 p           4   1.0000000000000000     
   5.8263656140800002       0.73716451545209605     
   1.5106896018720002       0.68216371614850257     
  0.53256483288000001       0.35783053929253711     
  0.21202323690600003        5.3983030275847881E-002

           3 0
 s           4   1.0000000000000000     
   51.049363095579913      -0.16312063210127389     
   8.7911227406887544      -0.19911024581000730     
  0.70640422258929825       0.31882047753655751     
  0.26922813413411617       0.12706504184240380     
 p           4   1.0000000000000000     
   5.8263656140800002       0.73716451545209605     
   1.5106896018720002       0.68216371614850257     
  0.53256483288000001       0.35783053929253711     
  0.21202323690600003        5.3983030275847881E-002

           4 0
 s           3   1.0000000000000000     
   3.3702276975336001       0.27359110588908298     
  0.61389118221497996       0.26460540653860526     
  0.16614291148415999        8.2465947534082318E-002

           5 0
 s           3   1.0000000000000000     
   3.3702276975336001       0.27359110588908298     
  0.61389118221497996       0.26460540653860526     
  0.16614291148415999        8.2465947534082318E-002

           6 0
 s           3   1.0000000000000000     
   3.3702276975336001       0.27359110588908298     
  0.61389118221497996       0.26460540653860526     
  0.16614291148415999        8.2465947534082318E-002

           7 0
 s           3   1.0000000000000000     
   3.3702276975336001       0.27359110588908298     
  0.61389118221497996       0.26460540653860526     
  0.16614291148415999        8.2465947534082318E-002

           8 0
 s           3   1.0000000000000000     
   3.3702276975336001       0.27359110588908298     
  0.61389118221497996       0.26460540653860526     
  0.16614291148415999        8.2465947534082318E-002

           9 0
 s           3   1.0000000000000000     
   3.3702276975336001       0.27359110588908298     
  0.61389118221497996       0.26460540653860526     
  0.16614291148415999        8.2465947534082318E-002

[MO]
Sym=     1a
Ene=  -0.68379581295419678     
Spin= Alpha
Occup=     2.00000000
           1 -0.74803794131897838     
           2  -7.3179565074388511E-002
           3   1.9454610899728279E-002
           4  -4.6355664895252183E-002
           5 -0.23515054304620459     
           6  0.12909465847896753     
           7 -0.11941775415539296     
           8  -1.2160001123604568E-002
           9  -5.2442495074737049E-002
          10   4.9119185402380576E-002
          11   7.9201007059826953E-003
          12  -3.4559456709707136E-003
          13  -3.2976765226941908E-002
          14  -2.2554415169473069E-002
          15  -2.9235246048872074E-003
          16  -7.0603172856073372E-003
          17  -1.2035929622092731E-002
          18 -0.15764320285242994     
Sym=     2a
Ene=  -0.62557372966192448     
Spin= Alpha
Occup=     2.00000000
           1 -0.28214646319891068     
           2  0.21350943546981740     
           3 -0.17066442027249201     
           4  -7.4409534970668254E-002
           5  0.43072401746278588     
           6  0.10820807069698378     
           7   3.0480702399920363E-002
           8  -1.1704402925293955E-002
           9  0.35575443443369309     
          10  -9.4838525699584633E-002
          11  -7.1956510749480507E-002
          12   2.2512995891878166E-003
          13  0.14061407785089325     
          14  0.14434627109542736     
          15  0.10573172311729205     
          16   9.6687540183483425E-002
          17  0.10073958666971293     
          18 -0.12804698499563191     
Sym=     3a
Ene=  -0.59348958667046581     
Spin= Alpha
Occup=     2.00000000
           1  -1.1909823210938071E-002
           2  0.11598463313938372     
           3 -0.34243462476938435     
           4 -0.20586274223830142     
           5  0.20956085567648708     
           6 -0.23852447889269948     
           7  -8.7808892515051987E-002
           8  -7.5500844155944019E-002
           9 -0.38298066433293809     
          10  -5.3283093058330309E-002
          11  -3.9989831670401717E-002
          12  -3.2481017190497508E-002
          13   7.6007651907934001E-002
          14  0.13567690294613421     
          15 -0.15792473161041573     
          16 -0.14202470810561979     
          17 -0.18221357479992842     
          18 -0.21842110107078588     
Sym=     4a
Ene=  -0.55651511267277853     
Spin= Alpha
Occup=     2.00000000
           1 -0.24153854507756728     
           2   1.6683827079108617E-002
           3  0.10601176922085880     
           4  0.46838560503965637     
           5  0.17169322969139908     
           6   9.1055805392856459E-002
           7 -0.16470663529198371     
           8  0.29361213315833257     
           9 -0.16497799852009865     
          10  -8.3891258643217323E-002
          11 -0.11506187093377530     
          12  0.11612945812737556     
          13  0.29695228042893512     
          14  -8.3394643689258374E-003
          15  -7.5044403163490744E-002
          16 -0.17245672814674334     
          17  -4.6548306861448029E-002
          18  0.23875750776811028     
Sym=     5a
Ene=  -0.52800471892878575     
Spin= Alpha
Occup=     2.00000000
           1  0.22253489838319701     
           2 -0.48920345467365950     
           3  0.11028716857553626     
           4 -0.11641263837639032     
           5   3.9133886320194849E-002
           6  0.14822031563785232     
           7 -0.37415442420019018     
           8 -0.14840167708392840     
           9   2.3948569611169659E-002
          10  0.17547071806158082     
          11 -0.20011851856351837     
          12  -9.5843410184084751E-002
          13  0.10082354135766620     
          14  0.26349806167902379     
          15  0.20114100038744459     
          16  -1.4165421247315804E-002
          17 -0.12447271156897383     
          18   2.2143737119082890E-002
Sym=     6a
Ene=  -0.51391465771197664     
Spin= Alpha
Occup=     2.00000000
           1  -7.8693154545026497E-002
           2  0.18269145003233439     
           3  0.41606524292023922     
           4  -3.2952726164680840E-002
           5  0.10570696727932802     
           6  0.29087986734575322     
           7  0.14702575564308837     
           8 -0.24583499814267376     
           9  -8.1380714204636981E-002
          10 -0.31062015824505707     
          11 -0.15213801859355960     
          12 -0.20045158715824557     
          13 -0.17480150113359144     
          14  0.13318179680712985     
          15 -0.16815675564090415     
          16   5.5561962537981730E-004
          17 -0.24413984004316389     
          18  0.12328041915547730     
Sym=     7a
Ene=  -0.47909314765455435     
Spin= Alpha
Occup=     2.00000000
           1  0.18759149589989602     
           2  -8.1376195909260152E-002
           3  0.13108033104175468     
           4 -0.41632172974013354     
           5   1.7231210820275952E-002
           6  0.21048153727981364     
           7  0.12644497688799014     
           8   8.2455538227270780E-002
           9   1.2072172272226513E-002
          10 -0.12581715962646314     
          11 -0.23912860032724673     
          12  0.41679037357512960     
          13  -3.6042967224182007E-003
          14 -0.12996427629012627     
          15   2.7554917757153720E-002
          16 -0.40491174265950330     
          17  0.16523705147557818     
          18 -0.15663732154483326     
Sym=     8a
Ene=  -0.46714016005045533     
Spin= Alpha
Occup=     2.00000000
           1  -2.0055461313713906E-002
           2  0.26220698339558984     
           3 -0.13975391994130765     
           4  0.13019145579756877     
           5  -3.4977493354130827E-002
           6  -5.1962855881724668E-002
           7  0.21037440948649999     
           8   7.1880285838720220E-002
           9   1.3196972136002728E-002
          10  0.24131761413339947     
          11 -0.42306823224902362     
          12 -0.13963229910619451     
          13 -0.10171299783709890     
          14 -0.19610241061426001     
          15  0.42703575246689812     
          16 -0.12291780959130572     
          17 -0.32889281691141270     
          18  -1.5869091899902776E-002
Sym=     9a
Ene=  -0.44141473322701097     
Spin= Alpha
Occup=     2.00000000
           1  0.16889654292683309     
           2 -0.31756547311386696     
           3 -0.11960513019988941     
           4 -0.20885453441216073     
           5   1.2789388735580796E-002
           6  0.17244214030034785     
           7   8.6174809079567080E-002
           8  0.35852739475194811     
           9   7.4044412150327990E-002
          10 -0.22681648468899845     
          11  -2.9105493928895620E-002
          12 -0.29174615725890829     
          13  0.25515517932378101     
          14 -0.36314868644914899     
          15 -0.13463087222559120     
          16  0.25142103110077796     
          17 -0.25418600355912008     
          18 -0.17860506150774680     
Sym=    10a
Ene=  -0.41171598640538182     
Spin= Alpha
Occup=     2.00000000
           1   1.1754020248947783E-002
           2  0.44816006064278280     
           3  0.56518126187288686     
           4 -0.42406876870796323     
           5  -2.2133302844292536E-002
           6 -0.14119892554564298     
           7 -0.16614647234944688     
           8  0.17184385572082295     
           9 -0.11436000099848311     
          10  0.24612235778231289     
          11  0.12834928487339031     
          12  -7.1384397206832512E-002
          13  0.32546596352725748     
          14  -5.0861453387997142E-002
          15   9.0991847722855165E-002
          16  0.11063672409830698     
          17  -3.7832187489364177E-002
          18  -1.6295032564993931E-002
Sym=    11a
Ene=    4.8521570709705586E-002
Spin= Alpha
Occup=     0.00000000
           1  0.69690535133536746     
           2  0.53991793661995935     
           3 -0.17526516706576392     
           4  0.32143630543835000     
           5 -0.26049633744885681     
           6  0.62810161728701264     
           7 -0.46590794801027396     
           8  0.11331163451760853     
           9   5.8197158446486409E-002
          10  0.22166118071217586     
          11  -8.8063555937862650E-002
          12   7.5071565457572625E-002
          13 -0.16791051740895319     
          14   5.9071842664911854E-002
          15 -0.36956356278446600     
          16  0.15243192079800102     
          17   3.0985204144811325E-002
          18 -0.51623529126411782     
Sym=    12a
Ene=   0.11884764980337169     
Spin= Alpha
Occup=     0.00000000
           1   7.4876903013950502E-002
           2 -0.27580017557979908     
           3  0.35585675414339818     
           4  0.23470952467821338     
           5  0.66088253649229423     
           6   5.7178332688811513E-002
           7  0.30092044710107840     
           8  0.45948376975361216     
           9 -0.24308169020956977     
          10  0.26434175270542204     
          11  0.38264524973588232     
          12  0.39435454491692495     
          13 -0.52455552339028688     
          14  0.28844321356766772     
          15  0.17531200117635895     
          16  0.24365357767776405     
          17 -0.43067308306623703     
          18 -0.49734161031789031     
Sym=    13a
Ene=   0.12803205689329142     
Spin= Alpha
Occup=     0.00000000
           1  -7.9564147746363126E-002
           2  -3.7890979597757321E-002
           3 -0.15914904114198627     
           4 -0.11362377217054981     
           5  0.71373355414354167     
           6  0.47908717832554354     
           7  -6.4278952526388893E-003
           8 -0.26944075765916692     
           9 -0.75499261995689126     
          10  0.42024432212914531     
          11   3.4618748784224503E-002
          12 -0.28697321744724907     
          13 -0.10599956598289895     
          14 -0.58944376637395013     
          15   1.3774169584779250E-002
          16   8.6794822797553808E-002
          17  0.56694257566602924     
          18  0.25029254461128969     
Sym=    14a
Ene=   0.15665944366493942     
Spin= Alpha
Occup=     0.00000000
           1  -5.6463606962280630E-002
           2  -7.2378702435977313E-002
           3  0.18882590228184173     
           4   4.1056454633124309E-002
           5  0.58009446850894397     
           6 -0.24946835307628196     
           7 -0.31551841735086295     
           8 -0.15489683380571140     
           9  0.89604970441443044     
          10  0.37307331431328483     
          11   5.2085594026959642E-002
          12 -0.17012458656196899     
          13 -0.26262438249278203     
          14 -0.52747244483120692     
          15 -0.60913054264996769     
          16 -0.52038362197349719     
          17 -0.22301737616284964     
          18  -3.6357803498863882E-002
Sym=    15a
Ene=   0.16678812879563282     
Spin= Alpha
Occup=     0.00000000
           1 -0.20945749792824664     
           2   6.3010475772583799E-002
           3 -0.11593401389486659     
           4 -0.30974530405734185     
           5  0.17453480711182517     
           6 -0.28135675231938351     
           7 -0.51860630699174470     
           8  0.30296345662177709     
           9  -5.3411524182555757E-002
          10 -0.15195027191602023     
          11 -0.58620173091609706     
          12  0.44268886316394407     
          13 -0.65094601848536493     
          14 -0.12725468864333475     
          15 -0.20435466377421538     
          16  0.74556134876250113     
          17  -4.8306565740924123E-002
          18  0.45776279627542216     
Sym=    16a
Ene=   0.20264003760213059     
Spin= Alpha
Occup=     0.00000000
           1 -0.24324076117937618     
           2   4.2972966646573831E-002
           3 -0.39284843305130995     
           4 -0.37255342087896914     
           5 -0.17710467035282529     
           6  0.47378159597451686     
           7  0.41482620822868022     
           8   5.3052643641523914E-002
           9  0.23305492692189500     
          10  0.63506080875025617     
          11  0.20263001801595765     
          12  0.34271794969246067     
          13  0.23560512794268723     
          14  0.34418539018212740     
          15 -0.44615303839654435     
          16   5.7650197588804422E-002
          17 -0.53039871276007500     
          18  0.64447332626449927     
Sym=    17a
Ene=   0.24399613100979303     
Spin= Alpha
Occup=     0.00000000
           1  -5.5714811553459233E-002
           2 -0.20598764510250636     
           3  0.25311575271019415     
           4  0.13124437207705117     
           5 -0.12449215061851099     
           6 -0.26608773202891384     
           7  0.52507334197808497     
           8  0.19435404081578045     
           9  -6.3768274937530942E-002
          10  0.48298488922612898     
          11 -0.74463118943867457     
          12 -0.27163312515580207     
          13  0.14430318373963008     
          14  0.41124998021983772     
          15 -0.72568911274488923     
          16  0.20769269890469322     
          17  0.59575242816809937     
          18 -0.29052868385523345     
Sym=    18a
Ene=   0.26838988629696769     
Spin= Alpha
Occup=     0.00000000
           1  -6.4660733158704728E-002
           2   7.7190937452549818E-002
           3 -0.16663294556058320     
           4 -0.28348477922164200     
           5  -1.7064162119199481E-002
           6  0.12319339069638803     
           7 -0.13143608263543999     
           8  0.84821683614258969     
           9   6.4336327791814196E-002
          10  -6.5622676287296580E-002
          11  0.19415701593733348     
          12 -0.68805910770546685     
          13 -0.64175738876275690     
          14  0.54597659198156623     
          15  0.11300171760611658     
          16 -0.59815042235052862     
          17  0.34705469217729418     
          18  0.28300263562348388     
