[Molden Format]
[Title]
[Atoms] AU
O      1     8 -0.22132472371555E+01  0.56635091954875E+00  0.00000000000000E+00
C      2     6 -0.87494319569926E-01 -0.10705298495975E+01  0.00000000000000E+00
C      3     6  0.23007415567254E+01  0.50417893004873E+00  0.00000000000000E+00
H      4     1 -0.18103576273864E+00 -0.22903480630400E+01  0.16665494693028E+01
H      5     1 -0.17990192706387E+00 -0.22559550475719E+01 -0.16905489910854E+01
H      6     1  0.39778734923260E+01 -0.70297811835880E+00 -0.33448152405782E-01
H      7     1  0.23481736824534E+01  0.17587681041842E+01 -0.16448176188696E+01
H      8     1  0.23840784788211E+01  0.17105800880064E+01  0.16792106343377E+01
H      9     1 -0.21336897673089E+01  0.15805669306325E+01  0.15304891883301E+01
[GTO]
           1 0
 s           4   1.0000000000000000     
   69.137961906196551      -0.20478756370077797     
   11.906129132707308      -0.24997023136827334     
  0.95670827744340703       0.40025880240639616     
  0.36462520496073686       0.15952206667693555     
 p           4   1.0000000000000000     
   8.2124193257781641        1.1321556799186829     
   2.1293576997098116        1.0476840782254817     
  0.75066448202360914       0.54956508217158984     
  0.29885246543283073        8.2908486592766617E-002

           2 0
 s           4   1.0000000000000000     
   51.049363095579913      -0.16312063210127389     
   8.7911227406887544      -0.19911024581000730     
  0.70640422258929825       0.31882047753655751     
  0.26922813413411617       0.12706504184240380     
 p           4   1.0000000000000000     
   5.8263656140800002       0.73716451545209605     
   1.5106896018720002       0.68216371614850257     
  0.53256483288000001       0.35783053929253711     
  0.21202323690600003        5.3983030275847881E-002

           3 0
 s           4   1.0000000000000000     
   51.049363095579913      -0.16312063210127389     
   8.7911227406887544      -0.19911024581000730     
  0.70640422258929825       0.31882047753655751     
  0.26922813413411617       0.12706504184240380     
 p           4   1.0000000000000000     
   5.8263656140800002       0.73716451545209605     
   1.5106896018720002       0.68216371614850257     
  0.53256483288000001       0.35783053929253711     
  0.21202323690600003        5.3983030275847881E-002

           4 0
 s           3   1.0000000000000000     
   3.3702276975336001       0.27359110588908298     
  0.61389118221497996       0.26460540653860526     
  0.16614291148415999        8.2465947534082318E-002

           5 0
 s           3   1.0000000000000000     
   3.3702276975336001       0.27359110588908298     
  0.61389118221497996       0.26460540653860526     
  0.16614291148415999        8.2465947534082318E-002

           6 0
 s           3   1.0000000000000000     
   3.3702276975336001       0.27359110588908298     
  0.61389118221497996       0.26460540653860526     
  0.16614291148415999        8.2465947534082318E-002

           7 0
 s           3   1.0000000000000000     
   3.3702276975336001       0.27359110588908298     
  0.61389118221497996       0.26460540653860526     
  0.16614291148415999        8.2465947534082318E-002

           8 0
 s           3   1.0000000000000000     
   3.3702276975336001       0.27359110588908298     
  0.61389118221497996       0.26460540653860526     
  0.16614291148415999        8.2465947534082318E-002

           9 0
 s           3   1.0000000000000000     
   3.3702276975336001       0.27359110588908298     
  0.61389118221497996       0.26460540653860526     
  0.16614291148415999        8.2465947534082318E-002

[MO]
Sym=     1a
Ene=  -0.68379581295419622     
Spin= Alpha
Occup=     2.00000000
           1 -0.74803794131897838     
           2  -7.3179565074388067E-002
           3   1.9454610899727269E-002
           4  -4.6355664895253952E-002
           5 -0.23515054304620350     
           6  0.12909465847896637     
           7 -0.11941775415539291     
           8  -1.2160001123605383E-002
           9  -5.2442495074737409E-002
          10   4.9119185402380326E-002
          11   7.9201007059833285E-003
          12  -3.4559456709718989E-003
          13  -3.2976765226942692E-002
          14  -2.2554415169471903E-002
          15  -2.9235246048864840E-003
          16  -7.0603172856076417E-003
          17  -1.2035929622093275E-002
          18 -0.15764320285243100     
Sym=     2a
Ene=  -0.62557372966192271     
Spin= Alpha
Occup=     2.00000000
           1 -0.28214646319891151     
           2  0.21350943546982282     
           3 -0.17066442027250123     
           4  -7.4409534970672847E-002
           5  0.43072401746279343     
           6  0.10820807069697656     
           7   3.0480702399917479E-002
           8  -1.1704402925294625E-002
           9  0.35575443443367949     
          10  -9.4838525699586174E-002
          11  -7.1956510749480909E-002
          12   2.2512995891874610E-003
          13  0.14061407785089622     
          14  0.14434627109543180     
          15  0.10573172311728687     
          16   9.6687540183479123E-002
          17  0.10073958666970727     
          18 -0.12804698499563755     
Sym=     3a
Ene=  -0.59348958667046425     
Spin= Alpha
Occup=     2.00000000
           1  -1.1909823210923190E-002
           2  0.11598463313937613     
           3 -0.34243462476938336     
           4 -0.20586274223830603     
           5  0.20956085567647087     
           6 -0.23852447889270620     
           7  -8.7808892515050294E-002
           8  -7.5500844155947516E-002
           9 -0.38298066433294470     
          10  -5.3283093058324633E-002
          11  -3.9989831670396672E-002
          12  -3.2481017190499034E-002
          13   7.6007651907925883E-002
          14  0.13567690294612894     
          15 -0.15792473161041712     
          16 -0.14202470810561973     
          17 -0.18221357479993072     
          18 -0.21842110107078619     
Sym=     4a
Ene=  -0.55651511267277731     
Spin= Alpha
Occup=     2.00000000
           1 -0.24153854507756981     
           2   1.6683827079108867E-002
           3  0.10601176922085033     
           4  0.46838560503965676     
           5  0.17169322969140069     
           6   9.1055805392850131E-002
           7 -0.16470663529198656     
           8  0.29361213315833135     
           9 -0.16497799852010570     
          10  -8.3891258643216504E-002
          11 -0.11506187093377263     
          12  0.11612945812737210     
          13  0.29695228042893579     
          14  -8.3394643689238268E-003
          15  -7.5044403163493881E-002
          16 -0.17245672814674423     
          17  -4.6548306861451290E-002
          18  0.23875750776810775     
Sym=     5a
Ene=  -0.52800471892878476     
Spin= Alpha
Occup=     2.00000000
           1  0.22253489838319745     
           2 -0.48920345467366405     
           3  0.11028716857553744     
           4 -0.11641263837639179     
           5   3.9133886320196702E-002
           6  0.14822031563785429     
           7 -0.37415442420019279     
           8 -0.14840167708392982     
           9   2.3948569611169590E-002
          10  0.17547071806157549     
          11 -0.20011851856351293     
          12  -9.5843410184083155E-002
          13  0.10082354135766758     
          14  0.26349806167902656     
          15  0.20114100038743926     
          16  -1.4165421247314090E-002
          17 -0.12447271156897073     
          18   2.2143737119082942E-002
Sym=     6a
Ene=  -0.51391465771197553     
Spin= Alpha
Occup=     2.00000000
           1  -7.8693154545027580E-002
           2  0.18269145003234114     
           3  0.41606524292024316     
           4  -3.2952726164683144E-002
           5  0.10570696727932945     
           6  0.29087986734575150     
           7  0.14702575564308770     
           8 -0.24583499814267479     
           9  -8.1380714204640908E-002
          10 -0.31062015824505401     
          11 -0.15213801859355944     
          12 -0.20045158715823985     
          13 -0.17480150113359075     
          14  0.13318179680713171     
          15 -0.16815675564090335     
          16   5.5561962537411429E-004
          17 -0.24413984004316211     
          18  0.12328041915547770     
Sym=     7a
Ene=  -0.47909314765455296     
Spin= Alpha
Occup=     2.00000000
           1  0.18759149589989649     
           2  -8.1376195909264357E-002
           3  0.13108033104175570     
           4 -0.41632172974013643     
           5   1.7231210820277554E-002
           6  0.21048153727981456     
           7  0.12644497688798703     
           8   8.2455538227278399E-002
           9   1.2072172272225491E-002
          10 -0.12581715962646445     
          11 -0.23912860032724201     
          12  0.41679037357512833     
          13  -3.6042967224092426E-003
          14 -0.12996427629012916     
          15   2.7554917757148807E-002
          16 -0.40491174265950142     
          17  0.16523705147558018     
          18 -0.15663732154483506     
Sym=     8a
Ene=  -0.46714016005045339     
Spin= Alpha
Occup=     2.00000000
           1  -2.0055461313709746E-002
           2  0.26220698339558185     
           3 -0.13975391994130687     
           4  0.13019145579756611     
           5  -3.4977493354130106E-002
           6  -5.1962855881719831E-002
           7  0.21037440948649627     
           8   7.1880285838718125E-002
           9   1.3196972136003989E-002
          10  0.24131761413340047     
          11 -0.42306823224902851     
          12 -0.13963229910619096     
          13 -0.10171299783709896     
          14 -0.19610241061425704     
          15  0.42703575246690245     
          16 -0.12291780959131102     
          17 -0.32889281691141309     
          18  -1.5869091899903459E-002
Sym=     9a
Ene=  -0.44141473322701003     
Spin= Alpha
Occup=     2.00000000
           1  0.16889654292683004     
           2 -0.31756547311386241     
           3 -0.11960513019988595     
           4 -0.20885453441215732     
           5   1.2789388735581712E-002
           6  0.17244214030034816     
           7   8.6174809079568232E-002
           8  0.35852739475194634     
           9   7.4044412150327116E-002
          10 -0.22681648468899870     
          11  -2.9105493928894926E-002
          12 -0.29174615725891406     
          13  0.25515517932377990     
          14 -0.36314868644914722     
          15 -0.13463087222559270     
          16  0.25142103110078318     
          17 -0.25418600355912474     
          18 -0.17860506150774438     
Sym=    10a
Ene=  -0.41171598640538115     
Spin= Alpha
Occup=     2.00000000
           1   1.1754020248946879E-002
           2  0.44816006064278274     
           3  0.56518126187288320     
           4 -0.42406876870795873     
           5  -2.2133302844294697E-002
           6 -0.14119892554564675     
           7 -0.16614647234944924     
           8  0.17184385572082361     
           9 -0.11436000099848277     
          10  0.24612235778231623     
          11  0.12834928487339020     
          12  -7.1384397206833455E-002
          13  0.32546596352725815     
          14  -5.0861453387996532E-002
          15   9.0991847722857844E-002
          16  0.11063672409830813     
          17  -3.7832187489364982E-002
          18  -1.6295032564992873E-002
Sym=    11a
Ene=    4.8521570709706356E-002
Spin= Alpha
Occup=     0.00000000
           1  0.69690535133536957     
           2  0.53991793661995946     
           3 -0.17526516706576287     
           4  0.32143630543835233     
           5 -0.26049633744885986     
           6  0.62810161728701264     
           7 -0.46590794801027335     
           8  0.11331163451760834     
           9   5.8197158446485001E-002
          10  0.22166118071217342     
          11  -8.8063555937861832E-002
          12   7.5071565457572431E-002
          13 -0.16791051740895110     
          14   5.9071842664913721E-002
          15 -0.36956356278446323     
          16  0.15243192079800089     
          17   3.0985204144811995E-002
          18 -0.51623529126412171     
Sym=    12a
Ene=   0.11884764980337283     
Spin= Alpha
Occup=     0.00000000
           1   7.4876903013953819E-002
           2 -0.27580017557979897     
           3  0.35585675414340634     
           4  0.23470952467821907     
           5  0.66088253649227280     
           6   5.7178332688793049E-002
           7  0.30092044710107896     
           8  0.45948376975362154     
           9 -0.24308169020954309     
          10  0.26434175270541010     
          11  0.38264524973588065     
          12  0.39435454491692901     
          13 -0.52455552339028422     
          14  0.28844321356768637     
          15  0.17531200117635626     
          16  0.24365357767775603     
          17 -0.43067308306625113     
          18 -0.49734161031790242     
Sym=    13a
Ene=   0.12803205689329333     
Spin= Alpha
Occup=     0.00000000
           1  -7.9564147746361322E-002
           2  -3.7890979597764475E-002
           3 -0.15914904114197456     
           4 -0.11362377217054373     
           5  0.71373355414356943     
           6  0.47908717832554176     
           7  -6.4278952526391009E-003
           8 -0.26944075765915226     
           9 -0.75499261995689426     
          10  0.42024432212915447     
          11   3.4618748784233884E-002
          12 -0.28697321744723298     
          13 -0.10599956598292391     
          14 -0.58944376637394857     
          15   1.3774169584780773E-002
          16   8.6794822797564952E-002
          17  0.56694257566601225     
          18  0.25029254461127637     
Sym=    14a
Ene=   0.15665944366494142     
Spin= Alpha
Occup=     0.00000000
           1  -5.6463606962276959E-002
           2  -7.2378702435974190E-002
           3  0.18882590228184243     
           4   4.1056454633126759E-002
           5  0.58009446850893820     
           6 -0.24946835307628643     
           7 -0.31551841735087016     
           8 -0.15489683380571195     
           9  0.89604970441443510     
          10  0.37307331431327589     
          11   5.2085594026957970E-002
          12 -0.17012458656196860     
          13 -0.26262438249278253     
          14 -0.52747244483120825     
          15 -0.60913054264996447     
          16 -0.52038362197349697     
          17 -0.22301737616285022     
          18  -3.6357803498867670E-002
Sym=    15a
Ene=   0.16678812879563459     
Spin= Alpha
Occup=     0.00000000
           1 -0.20945749792824492     
           2   6.3010475772586033E-002
           3 -0.11593401389486846     
           4 -0.30974530405734285     
           5  0.17453480711181868     
           6 -0.28135675231938151     
           7 -0.51860630699174426     
           8  0.30296345662178475     
           9  -5.3411524182549429E-002
          10 -0.15195027191602176     
          11 -0.58620173091609284     
          12  0.44268886316394840     
          13 -0.65094601848536771     
          14 -0.12725468864332473     
          15 -0.20435466377421441     
          16  0.74556134876249913     
          17  -4.8306565740932894E-002
          18  0.45776279627542243     
Sym=    16a
Ene=   0.20264003760213192     
Spin= Alpha
Occup=     0.00000000
           1 -0.24324076117937385     
           2   4.2972966646574656E-002
           3 -0.39284843305130968     
           4 -0.37255342087896853     
           5 -0.17710467035281982     
           6  0.47378159597452035     
           7  0.41482620822867750     
           8   5.3052643641528362E-002
           9  0.23305492692190002     
          10  0.63506080875025961     
          11  0.20263001801596578     
          12  0.34271794969245467     
          13  0.23560512794268129     
          14  0.34418539018212746     
          15 -0.44615303839654458     
          16   5.7650197588793466E-002
          17 -0.53039871276007600     
          18  0.64447332626449771     
Sym=    17a
Ene=   0.24399613100979470     
Spin= Alpha
Occup=     0.00000000
           1  -5.5714811553460232E-002
           2 -0.20598764510250553     
           3  0.25311575271019232     
           4  0.13124437207705017     
           5 -0.12449215061850970     
           6 -0.26608773202891334     
           7  0.52507334197808320     
           8  0.19435404081577326     
           9  -6.3768274937529151E-002
          10  0.48298488922613297     
          11 -0.74463118943867912     
          12 -0.27163312515579857     
          13  0.14430318373963361     
          14  0.41124998021983089     
          15 -0.72568911274489489     
          16  0.20769269890469708     
          17  0.59575242816809804     
          18 -0.29052868385523051     
Sym=    18a
Ene=   0.26838988629696919     
Spin= Alpha
Occup=     0.00000000
           1  -6.4660733158702646E-002
           2   7.7190937452548514E-002
           3 -0.16663294556057928     
           4 -0.28348477922163773     
           5  -1.7064162119199918E-002
           6  0.12319339069638478     
           7 -0.13143608263543854     
           8  0.84821683614258792     
           9   6.4336327791812795E-002
          10  -6.5622676287297232E-002
          11  0.19415701593732962     
          12 -0.68805910770547485     
          13 -0.64175738876275434     
          14  0.54597659198156534     
          15  0.11300171760611530     
          16 -0.59815042235053162     
          17  0.34705469217730289     
          18  0.28300263562347705     
