14
step=0 target=0.00deg measured=0.09deg E=-24.4328kcal/mol converged=True
C       -1.99979740     -0.07312255     -0.00662605
C       -0.58482444      0.50404680      0.00650375
C        0.55284319     -0.53939918      0.00733906
C        0.10115374     -1.99813942     -0.00727335
H       -2.17622646     -0.68563182     -0.89752406
H       -2.18670628     -0.70109355      0.87129408
H       -2.74998810      0.72577908     -0.00408652
H       -0.46016763      1.17023015     -0.86977332
H       -0.47178544      1.15932874      0.89252164
H        1.20681689     -0.35797271     -0.86861362
H        1.19392779     -0.37137623      0.89530267
H       -0.50732080     -2.23982685      0.87078914
H        0.96383509     -2.67521375     -0.00659106
H       -0.49490184     -2.22583035     -0.89754728
14
step=1 target=15.00deg measured=71.21deg E=-27.4476kcal/mol converged=True
C       -2.01883716      0.03821006      0.26357266
C       -0.61438810      0.42230684     -0.20363862
C        0.43354741     -0.62696140      0.19668285
C        0.29150786     -1.91751293     -0.61153386
H       -2.32615007     -0.92905948     -0.15211737
H       -2.07255668     -0.04074347      1.35482976
H       -2.75859240      0.78147432     -0.05176369
H       -0.60943686      0.55942305     -1.30151987
H       -0.33309000      1.40367982      0.22396462
H        1.44833210     -0.20823261      0.05240922
H        0.35063824     -0.84674944      1.27790597
H       -0.64812344     -2.43206476     -0.37974708
H        1.11147140     -2.61120687     -0.39732082
H        0.29655675     -1.71929650     -1.68930833
14
step=2 target=30.00deg measured=73.58deg E=-27.4768kcal/mol converged=True
C       -2.03859268      0.27259406      0.41968324
C       -0.69463925      0.28273581     -0.30918654
C        0.32804787     -0.65594111      0.34890969
C        0.01328738     -2.12703978      0.07466855
H       -2.47901176     -0.73096018      0.43056421
H       -1.93081941      0.59691997      1.46045492
H       -2.75770251      0.94274738     -0.06384097
H       -0.83834442     -0.00241929     -1.36876461
H       -0.29125294      1.31349539     -0.32694181
H        1.34184224     -0.41741276     -0.02675663
H        0.36355255     -0.47301218      1.43948965
H       -0.94484169     -2.42033577      0.51862051
H        0.78714399     -2.78188538      0.49051159
H       -0.04841633     -2.32828981     -1.00076617
14
step=3 target=45.00deg measured=74.92deg E=-27.4817kcal/mol converged=True
C       -2.03040692      0.46637986      0.47427374
C       -0.76921410      0.17409054     -0.33836397
C        0.25173497     -0.65242217      0.45812774
C       -0.16476385     -2.11872092      0.57664272
H       -2.53094405     -0.45944810      0.77896183
H       -1.79834111      1.02980204      1.38491765
H       -2.74848587      1.05626995     -0.10576345
H       -1.03575848     -0.35560033     -1.27210657
H       -0.30265930      1.12636277     -0.65574473
H        1.23967675     -0.58691914     -0.03618068
H        0.38885069     -0.21372723      1.46426885
H       -1.10810420     -2.22433372      1.12409987
H        0.59254744     -2.70670615      1.10667948
H       -0.30745243     -2.57259456     -0.41048318
14
step=4 target=60.00deg measured=68.14deg E=-27.4159kcal/mol converged=True
C       -2.03142789      0.52030162      0.46818165
C       -0.79195670      0.14156762     -0.34298417
C        0.22967306     -0.64462604      0.49221927
C       -0.27929961     -2.03619257      0.87146941
H       -2.59127520     -0.37081838      0.77272494
H       -1.76486469      1.06749949      1.37904315
H       -2.70813082      1.15601230     -0.11276766
H       -1.08823295     -0.45248112     -1.22815640
H       -0.31623854      1.05772346     -0.74161249
H        1.17316496     -0.73935931     -0.07934018
H        0.48711528     -0.07663719      1.40612781
H       -1.11405850     -1.97809307      1.57841684
H        0.51113094     -2.63059270      1.34290049
H       -0.63197238     -2.58744264     -0.00673605
14
step=5 target=75.00deg measured=72.39deg E=-27.4798kcal/mol converged=True
C       -2.02848857      0.50280797      0.47786991
C       -0.78555792      0.15282006     -0.34122246
C        0.23946945     -0.64650818      0.47763553
C       -0.22194621     -2.08236110      0.73008543
H       -2.55128329     -0.39867218      0.81576974
H       -1.76801019      1.08462168      1.36885709
H       -2.73826711      1.09528173     -0.10959395
H       -1.07449858     -0.42160919     -1.24198908
H       -0.31509413      1.08160097     -0.71553035
H        1.20978851     -0.65696690     -0.05545069
H        0.43317518     -0.13694783      1.44026794
H       -1.14288606     -2.10672864      1.32361770
H        0.53712995     -2.65357989      1.27536659
H       -0.42183457     -2.60982183     -0.20877563
14
step=6 target=90.00deg measured=80.17deg E=-27.4336kcal/mol converged=True
C       -2.02670069      0.43581808      0.48149585
C       -0.75825339      0.19461481     -0.33784450
C        0.27582747     -0.63667198      0.43690587
C       -0.04667268     -2.13076398      0.39799468
H       -2.47231726     -0.50722309      0.81619924
H       -1.81400474      1.03470469      1.37417089
H       -2.78396454      0.96753219     -0.10371089
H       -1.01163677     -0.31127385     -1.28829632
H       -0.31295401      1.16649691     -0.62323411
H        1.28203763     -0.46511107      0.00985015
H        0.33298373     -0.28802650      1.48507670
H       -1.06538982     -2.33043124      0.74921935
H        0.63965980     -2.70181456      1.03322640
H        0.03671053     -2.53014894     -0.61871912
14
step=7 target=105.00deg measured=104.63deg E=-26.8255kcal/mol converged=True
C       -2.02640838      0.43332487      0.48121208
C       -0.75746598      0.19754956     -0.33926197
C        0.27843335     -0.63559533      0.43643070
C        0.34256427     -2.07899125     -0.06549811
H       -2.47054250     -0.51288865      0.80940362
H       -1.81750828      1.03027267      1.37561940
H       -2.78389580      0.96831241     -0.10220708
H       -1.01576795     -0.30166412     -1.29258467
H       -0.31703796      1.16980075     -0.62776895
H        1.27723058     -0.16829126      0.34839610
H        0.04434684     -0.62660762      1.51780236
H       -0.64542981     -2.55181442     -0.04590240
H        1.01079574     -2.68653659      0.55448428
H        0.71483564     -2.12740308     -1.09509052
14
step=8 target=120.00deg measured=119.99deg E=-26.5942kcal/mol converged=True
C       -2.02595256      0.43329154      0.48105675
C       -0.75708946      0.19824714     -0.33980586
C        0.27882283     -0.63490043      0.43694308
C        0.61863654     -1.93989847     -0.28583904
H       -2.47113827     -0.51342521      0.80747924
H       -1.81773676      1.02869265      1.37725389
H       -2.78374321      0.96842442     -0.10137073
H       -1.01724071     -0.30156341     -1.29194585
H       -0.31690268      1.16895818     -0.63240380
H        1.20038595     -0.04292630      0.58975885
H       -0.09371729     -0.86099389      1.45369326
H       -0.28312619     -2.52509488     -0.49729054
H        1.28179952     -2.56799872      0.31868202
H        1.12433881     -1.74952043     -1.23910929
14
step=9 target=135.00deg measured=178.30deg E=-28.1804kcal/mol converged=True
C       -1.92849911      0.65839839      0.52201343
C       -0.91212359     -0.03524761     -0.38475221
C        0.08816236     -0.84859470      0.44882155
C        1.08656801     -1.58276730     -0.44548103
H       -2.53307377     -0.07109657      1.07304866
H       -1.43170203      1.30026766      1.25820881
H       -2.61499672      1.28721461     -0.05537141
H       -1.43255349     -0.69399865     -1.10467579
H       -0.37493805      0.71332697     -0.99604178
H        0.62473079     -0.17838299      1.14670338
H       -0.45448794     -1.57425012      1.08349772
H        0.58678608     -2.32871147     -1.07348092
H        1.84318216     -2.10512078      0.15091286
H        1.61551318     -0.89180438     -1.11178823
14
step=10 target=150.00deg measured=180.43deg E=-28.1900kcal/mol converged=True
C       -1.83467166      0.80305863      0.50925563
C       -1.05484461     -0.19027042     -0.35274075
C       -0.04746350     -0.98184964      0.49309146
C        0.73641906     -1.96545617     -0.37597656
H       -2.44105569      0.28671546      1.26151978
H       -1.16237380      1.48660647      1.04075522
H       -2.51087804      1.41353175     -0.09895390
H       -1.75283048     -0.88581341     -0.85487253
H       -0.52352485      0.34519579     -1.16243762
H        0.64779571     -0.28683331      0.99998551
H       -0.57244849     -1.52438635      1.30123240
H        0.07792584     -2.71626512     -0.82663030
H        1.49242940     -2.49892552      0.21060321
H        1.25529930     -1.45003501     -1.19198886
14
step=11 target=165.00deg measured=179.61deg E=-28.1992kcal/mol converged=True
C       -1.77867123      0.86198078      0.49018169
C       -1.12312187     -0.25164444     -0.32630392
C       -0.12090332     -1.04457474      0.52421748
C        0.52222095     -2.16175651     -0.29753815
H       -2.34284531      0.45900627      1.33884702
H       -1.03241631      1.55714338      0.89046681
H       -2.47534036      1.44478050     -0.12292461
H       -1.89633208     -0.93169702     -0.72953251
H       -0.60980844      0.17763648     -1.20789155
H        0.65856130     -0.36681708      0.91995704
H       -0.62866432     -1.46941034      1.40998679
H       -0.22388381     -2.89241535     -0.62920818
H        1.27716485     -2.70116988      0.28392669
H        1.01608087     -1.76594862     -1.19169091
14
step=12 target=180.00deg measured=180.00deg E=-28.1989kcal/mol converged=False
C       -1.77867123      0.86198078      0.49018169
C       -1.12312187     -0.25164444     -0.32630392
C       -0.12090332     -1.04457474      0.52421748
C        0.52940463     -2.15558400     -0.30024855
H       -2.34284531      0.45900627      1.33884702
H       -1.03241631      1.55714338      0.89046681
H       -2.47534036      1.44478050     -0.12292461
H       -1.89633208     -0.93169702     -0.72953251
H       -0.60980844      0.17763648     -1.20789155
H        0.65455227     -0.36564221      0.92577643
H       -0.63017727     -1.47532869      1.40625198
H       -0.21271666     -2.88757837     -0.63785763
H        1.28433733     -2.69473159      0.28147727
H        1.02491853     -1.75387244     -1.19084636
14
step=13 target=195.00deg measured=183.18deg E=-28.1802kcal/mol converged=True
C       -1.82844151      0.81783874      0.50693453
C       -1.07347755     -0.20064209     -0.34703983
C       -0.06496912     -0.98097218      0.50801503
C        0.74974395     -1.94652423     -0.35165576
H       -2.34149053      0.33413688      1.34534126
H       -1.14619187      1.56762279      0.92454914
H       -2.58587808      1.34947812     -0.07917595
H       -1.78397309     -0.90045994     -0.82521172
H       -0.55053568      0.31200548     -1.17639064
H        0.60914202     -0.27693648      1.03168964
H       -0.59740546     -1.53669441      1.30257009
H        0.09984843     -2.63312167     -0.90563023
H        1.42219875     -2.55389567      0.26367079
H        1.36278079     -1.41025969     -1.08446716
14
step=14 target=210.00deg measured=181.24deg E=-28.1852kcal/mol converged=True
C       -1.95266804      0.70951925      0.52366701
C       -0.95250108     -0.04533453     -0.35221375
C        0.04426666     -0.82762870      0.51488591
C        1.07073278     -1.56410749     -0.34510301
H       -2.47479401      0.03229415      1.20779446
H       -1.45192769      1.47123479      1.13191536
H       -2.71260960      1.21507696     -0.08225539
H       -1.48601497     -0.73750158     -1.02974087
H       -0.41189269      0.66314049     -1.00719976
H        0.55861116     -0.13741805      1.20944318
H       -0.50235137     -1.54865196      1.15204197
H        0.58714719     -2.25279788     -1.04583869
H        1.75700990     -2.15234689      0.27429613
H        1.67706818     -0.86686368     -0.93389730
14
step=15 target=225.00deg measured=180.60deg E=-28.1602kcal/mol converged=True
C       -2.12298026      0.51656776      0.47455089
C       -0.82915742      0.18976623     -0.27144894
C        0.15293965     -0.56458775      0.63545687
C        1.45261981     -0.87855594     -0.10560987
H       -2.68294712     -0.39194957      0.72300012
H       -1.92452400      1.04738038      1.41184565
H       -2.77968798      1.15023822     -0.13146493
H       -1.05651158     -0.41370502     -1.17049209
H       -0.35904431      1.11934961     -0.64444061
H        0.36965005      0.03630363      1.53868607
H       -0.31064238     -1.50089655      0.99816173
H        1.26455043     -1.44825514     -1.02229151
H        2.12991063     -1.47274459      0.51741692
H        1.98082924      0.03845621     -0.38966124
14
step=16 target=240.00deg measured=240.51deg E=-26.6037kcal/mol converged=True
C       -2.13573492      0.52068480      0.47303370
C       -0.83763508      0.19120442     -0.26552209
C        0.16227008     -0.56495390      0.62840430
C        1.47093585      0.20818176      0.79913824
H       -2.68753998     -0.38435360      0.74896769
H       -1.93952685      1.08300301      1.39301527
H       -2.79851130      1.13177350     -0.14969967
H       -1.06226345     -0.40992321     -1.16620591
H       -0.38234464      1.12504769     -0.64547223
H       -0.28267196     -0.76615603      1.62119881
H        0.37179506     -1.56108690      0.19565142
H        1.94794823      0.41020458     -0.16606105
H        2.18713624     -0.35376549      1.40852219
H        1.30114116      1.17193166      1.29289619
14
step=17 target=255.00deg measured=283.55deg E=-27.4685kcal/mol converged=True
C       -1.98572693      0.63823554      0.54159554
C       -0.86872618      0.07511622     -0.33733823
C        0.21490758     -0.62602108      0.49520812
C        1.13890356      0.37220351      1.19381684
H       -2.52250836     -0.16044055      1.06478897
H       -1.58931490      1.32045087      1.30169474
H       -2.71548888      1.19673397     -0.05355252
H       -1.29457400     -0.64047200     -1.06645988
H       -0.41657824      0.88529274     -0.93957926
H       -0.25760944     -1.29054305      1.24288565
H        0.81246667     -1.28835781     -0.15970361
H        1.67729965      0.99506609      0.47099699
H        1.88428767     -0.14375922      1.80832057
H        0.57908090      1.04470678      1.85297386
14
step=18 target=270.00deg measured=270.37deg E=-27.2690kcal/mol converged=True
C       -1.98381246      0.64047179      0.54235694
C       -0.86883815      0.07435075     -0.33811002
C        0.21607170     -0.62863413      0.49385192
C        1.32395078      0.33585784      0.92136916
H       -2.52230764     -0.15666366      1.06684286
H       -1.58566211      1.32323230      1.30084958
H       -2.71722664      1.19637494     -0.05183267
H       -1.29901931     -0.63787733     -1.06715154
H       -0.41912318      0.88254144     -0.94430261
H       -0.23754769     -1.10021793      1.38554130
H        0.65393938     -1.45952443     -0.09073304
H        1.84403357      0.75625829      0.05353523
H        2.07328754     -0.16916129      1.54095414
H        0.92354590      1.17338472      1.50240594
14
step=19 target=285.00deg measured=284.95deg E=-27.4685kcal/mol converged=True
C       -1.98485020      0.63996918      0.54188383
C       -0.86879080      0.07412892     -0.33691526
C        0.21604655     -0.62830383      0.49358912
C        1.12073630      0.37087429      1.21674301
H       -2.52157985     -0.15604556      1.06925327
H       -1.58705445      1.32537237      1.29880934
H       -2.71659953      1.19597084     -0.05404804
H       -1.29786993     -0.64035552     -1.06579826
H       -0.41628164      0.88329291     -0.93972203
H       -0.25456987     -1.31036156      1.22648193
H        0.82872077     -1.27215026     -0.16626058
H        1.65850734      1.00940624      0.50750821
H        1.86659946     -0.14230273      1.83283114
H        0.54321889      1.02748631      1.87732871
14
step=20 target=300.00deg measured=290.80deg E=-27.4442kcal/mol converged=True
C       -2.02968898      0.61845872      0.51212898
C       -0.85053959      0.11793017     -0.32277112
C        0.18559020     -0.62840632      0.53034698
C        0.93303667      0.30812669      1.48053937
H       -2.50187799     -0.19883809      1.06782877
H       -1.71159600      1.37162693      1.24215996
H       -2.79854555      1.07591140     -0.12012858
H       -1.22016759     -0.55381372     -1.12105262
H       -0.36696804      0.96687909     -0.84265146
H       -0.31275213     -1.43076380      1.10681399
H        0.90961613     -1.13859319     -0.13407470
H        1.38805878      1.14632021      0.94271418
H        1.73200833     -0.22168329      2.01024096
H        0.26040363      0.72946361      2.23597714
14
step=21 target=315.00deg measured=287.19deg E=-27.4698kcal/mol converged=True
C       -2.15898429      0.51100140      0.42705008
C       -0.82462799      0.21470893     -0.25791303
C        0.09843486     -0.64477221      0.61840603
C        0.67933015      0.14796573      1.78962263
H       -2.69771720     -0.41169705      0.66868957
H       -2.01696859      1.06052535      1.36385776
H       -2.80697243      1.11672466     -0.21559509
H       -1.00922029     -0.30559202     -1.21771742
H       -0.31741125      1.16207638     -0.52059928
H       -0.45195808     -1.52667784      0.99637017
H        0.92266529     -1.04888383     -0.00056572
H        1.19367508      1.05266085      1.44647112
H        1.40170038     -0.45269525      2.35305197
H       -0.10532408      0.46050678      2.48761873
14
step=22 target=330.00deg measured=289.89deg E=-27.4252kcal/mol converged=True
C       -2.28853213      0.40150550      0.23775340
C       -0.80751509      0.33320673     -0.13585715
C       -0.05046476     -0.72701628      0.67800273
C        0.10246519     -0.32464032      2.14545806
H       -2.78963124     -0.55816635      0.07204242
H       -2.41948214      0.66465638      1.29327754
H       -2.81310970      1.15761475     -0.35656204
H       -0.70522100      0.10975636     -1.21513138
H       -0.33512489      1.32269229      0.01184647
H       -0.56971012     -1.70102752      0.60568845
H        0.95000037     -0.88653438      0.23147539
H        0.50975275      0.68754195      2.24346655
H        0.77698420     -1.00655708      2.67489534
H       -0.86082035     -0.34147106      2.66697893
14
step=23 target=345.00deg measured=288.59deg E=-27.4621kcal/mol converged=True
C       -2.35959462      0.33270841     -0.09371827
C       -0.84352035      0.43438452      0.07631361
C       -0.23600500     -0.86551297      0.62507314
C       -0.58922491     -1.09141449      2.09570249
H       -2.63072811     -0.49160243     -0.76354544
H       -2.85880838      0.15398909      0.86588370
H       -2.77600347      1.25466498     -0.51482163
H       -0.37675529      0.67538306     -0.89852260
H       -0.59185137      1.27862304      0.74611716
H       -0.57713735     -1.72574073      0.01884328
H        0.86457623     -0.83332630      0.50939688
H       -0.31354354     -0.22802260      2.71149918
H       -0.06684551     -1.96584832      2.49892766
H       -1.66413133     -1.25817407      2.22759499
