14
step=0 target=0.00deg measured=0.00deg E=-8570.0422kcal/mol converged=True
C       -2.01287420     -0.06543123     -0.00718290
C       -0.59461891      0.49511834      0.00665991
C        0.54501944     -0.54918148      0.00681728
C        0.11019592     -2.01089216     -0.00688972
H       -2.19486173     -0.66211534     -0.89644646
H       -2.20630839     -0.67636007      0.86986099
H       -2.72859215      0.75371538     -0.00527135
H       -0.47843749      1.14484106     -0.86288409
H       -0.49071137      1.13120559      0.88780137
H        1.18149266     -0.37726797     -0.86333224
H        1.17029953     -0.38978571      0.88736474
H       -0.48036547     -2.25726447      0.87087773
H        0.98859008     -2.65251260     -0.00635107
H       -0.46953541     -2.24376444     -0.89544980
14
step=1 target=15.00deg measured=15.00deg E=-8570.6445kcal/mol converged=True
C       -2.01362973     -0.06614159     -0.00802347
C       -0.59395279      0.49505149      0.00623679
C        0.54481184     -0.54862594      0.00733130
C        0.14343058     -1.97479467     -0.36085637
H       -2.19350645     -0.66379267     -0.89663288
H       -2.20421012     -0.67852869      0.87132236
H       -2.72786369      0.75615327     -0.00477157
H       -0.48078446      1.14325430     -0.86683553
H       -0.48795922      1.13155925      0.88757642
H        1.32084148     -0.22253050     -0.68878014
H        1.00184552     -0.57456644      1.00014312
H       -0.58829068     -2.37195803      0.33629215
H        1.02215621     -2.61757908     -0.32953381
H       -0.26925792     -2.02080429     -1.36691823
14
step=2 target=30.00deg measured=30.00deg E=-8572.0730kcal/mol converged=True
C       -2.00024333     -0.07708644     -0.01061718
C       -0.58763083      0.49644680      0.00545804
C        0.54485537     -0.54306412      0.01072962
C        0.22544684     -1.86010163     -0.68788748
H       -2.17266632     -0.66696609     -0.90527305
H       -2.17737736     -0.70543377      0.86059150
H       -2.72432198      0.73617791      0.00651411
H       -0.48225340      1.11932794     -0.88796903
H       -0.46891298      1.15359760      0.86839164
H        1.43565966     -0.09829257     -0.43563691
H        0.79227893     -0.78084268      1.04973971
H       -0.60604060     -2.36600193     -0.20748137
H        1.09407254     -2.51558722     -0.64534811
H       -0.02378259     -1.69718100     -1.73504756
14
step=3 target=45.00deg measured=45.00deg E=-8573.4205kcal/mol converged=True
C       -1.99189282     -0.08356487     -0.02198568
C       -0.58377208      0.49742784     -0.00058929
C        0.54185752     -0.54310690      0.01732278
C        0.36325352     -1.69584340     -0.96253411
H       -2.16514810     -0.66699164     -0.92168787
H       -2.15518650     -0.72228188      0.84364925
H       -2.72002686      0.72446450      0.00504775
H       -0.45818408      1.12874976     -0.88372880
H       -0.46841210      1.13640175      0.87669247
H        1.48134692     -0.02950738     -0.19433033
H        0.61543556     -0.95681326      1.02613956
H       -0.52710701     -2.27454736     -0.73399690
H        1.22394921     -2.35903053     -0.90589433
H        0.28355462     -1.32265525     -1.98151840
14
step=4 target=60.00deg measured=60.00deg E=-8574.1520kcal/mol converged=True
C       -1.99121784     -0.08390744     -0.02266051
C       -0.58238696      0.49698211     -0.00085310
C        0.54092054     -0.54217066      0.01797907
C        0.56009909     -1.48556156     -1.17883408
H       -2.16494485     -0.66695238     -0.92182633
H       -2.15527746     -0.72255789      0.84359365
H       -2.72029628      0.72405827      0.00510796
H       -0.45794192      1.12928819     -0.88402516
H       -0.46885678      1.13646127      0.87716432
H        1.49390657     -0.01181282      0.07521600
H        0.44577032     -1.14234425      0.92684087
H       -0.34403095     -2.08477127     -1.22487083
H        1.41130899     -2.15956472     -1.09947767
H        0.65356354     -0.92437101     -2.10701366
14
step=5 target=75.00deg measured=75.00deg E=-8574.2553kcal/mol converged=True
C       -1.97771675     -0.09098606     -0.03454123
C       -0.57455961      0.50545760     -0.00578084
C        0.53948787     -0.54360088      0.03035994
C        0.77072688     -1.23874358     -1.30707387
H       -2.13716208     -0.67845113     -0.93495389
H       -2.13685364     -0.73330688      0.82948030
H       -2.72070495      0.70415200     -0.01270519
H       -0.42983488      1.15429249     -0.87175068
H       -0.49426160      1.13172027      0.88622617
H        1.47236797     -0.05322721      0.31949264
H        0.31097435     -1.28477643      0.79865470
H       -0.10886287     -1.79638775     -1.61793909
H        1.60257490     -1.93594935     -1.22529840
H        1.00834962     -0.50994323     -2.07961583
14
step=6 target=90.00deg measured=90.00deg E=-8573.5612kcal/mol converged=True
C       -1.97732481     -0.09078640     -0.03482640
C       -0.57465135      0.50663702     -0.00577555
C        0.54011760     -0.54418057      0.03117651
C        1.01922797     -0.97613813     -1.35053198
H       -2.13678669     -0.67892518     -0.93521040
H       -2.13677580     -0.73313064      0.82927502
H       -2.72076536      0.70376167     -0.01275347
H       -0.43022741      1.15434078     -0.87185891
H       -0.49432974      1.13189050      0.88630862
H        1.39514563     -0.12691703      0.56785694
H        0.19610168     -1.41434063      0.59238397
H        0.22128053     -1.45507976     -1.91260161
H        1.83952458     -1.68502527     -1.25518487
H        1.37300532     -0.11722396     -1.91781601
14
step=7 target=105.00deg measured=105.00deg E=-8572.7161kcal/mol converged=True
C       -1.97401076     -0.08894690     -0.03637944
C       -0.57264767      0.51322102     -0.00522584
C        0.54145650     -0.54698084      0.03734385
C        1.26338413     -0.71359086     -1.29624371
H       -2.12594993     -0.68218087     -0.93604395
H       -2.13412755     -0.72990888      0.82725404
H       -2.72436616      0.69935279     -0.01574491
H       -0.43880927      1.15911778     -0.87513190
H       -0.50099462      1.14578901      0.88369140
H        1.28467351     -0.25753107      0.78520592
H        0.12806962     -1.50918493      0.34573653
H        0.58228233     -1.06291721     -2.06985797
H        2.07170147     -1.43630725     -1.20043597
H        1.69252044      0.23174206     -1.61953806
14
step=8 target=120.00deg measured=120.00deg E=-8572.3571kcal/mol converged=True
C       -1.97115171     -0.09133957     -0.03175446
C       -0.57210886      0.51433874     -0.00109399
C        0.54360747     -0.54498247      0.04050306
C        1.49239431     -0.46149457     -1.15027062
H       -2.11217546     -0.68208603     -0.93373900
H       -2.12980391     -0.73296075      0.83353186
H       -2.72342783      0.69527723     -0.02302444
H       -0.44066290      1.14565644     -0.88125183
H       -0.49313672      1.16550679      0.87014692
H        1.12366239     -0.43183153      0.95704553
H        0.09805909     -1.54058122      0.06858702
H        0.95884832     -0.65306933     -2.07821151
H        2.28251960     -1.20421543     -1.05630166
H        1.94877323      0.52540238     -1.20791823
14
step=9 target=135.00deg measured=135.00deg E=-8572.7467kcal/mol converged=True
C       -1.96836020     -0.09094257     -0.03226511
C       -0.56886405      0.51637079     -0.00063941
C        0.54121141     -0.54598809      0.04335323
C        1.68373718     -0.24853164     -0.92337961
H       -2.11101452     -0.68521732     -0.93317796
H       -2.13023380     -0.73158661      0.83161669
H       -2.72279941      0.69370376     -0.02106524
H       -0.44143378      1.14330309     -0.88593734
H       -0.49031369      1.16830427      0.87199317
H        0.94760773     -0.61317428      1.05478934
H        0.12245561     -1.52420037     -0.20318054
H        1.32953862     -0.25334485     -1.95278538
H        2.46497574     -1.00086320     -0.83044419
H        2.12165398      0.72494533     -0.71483645
14
step=10 target=150.00deg measured=150.00deg E=-8573.7116kcal/mol converged=True
C       -1.96178075     -0.09290475     -0.03053486
C       -0.56470594      0.51740237      0.00157488
C        0.53795958     -0.54583483      0.04691006
C        1.82420793     -0.08057786     -0.62719979
H       -2.09975707     -0.69034027     -0.92990608
H       -2.12325850     -0.73441599      0.83370357
H       -2.71668806      0.69024083     -0.01988208
H       -0.43335297      1.12627358     -0.89557164
H       -0.46865755      1.17748229      0.86511870
H        0.74028796     -0.81540103      1.08471346
H        0.18551854     -1.44406289     -0.46477479
H        1.65511335      0.11498131     -1.68455429
H        2.59471306     -0.84330860     -0.53843746
H        2.19373583      0.83321011     -0.16572375
14
step=11 target=165.00deg measured=165.00deg E=-8574.6007kcal/mol converged=True
C       -1.96144361     -0.09307566     -0.03070737
C       -0.56373791      0.51633564      0.00142484
C        0.53696620     -0.54481140      0.04665798
C        1.91179960      0.02531572     -0.28618367
H       -2.09945522     -0.69019171     -0.92959106
H       -2.12306201     -0.73437543      0.83370549
H       -2.71676660      0.69013388     -0.01999840
H       -0.43292021      1.12660537     -0.89577915
H       -0.46866971      1.17758074      0.86539174
H        0.55805145     -1.00656641      1.03613233
H        0.30453012     -1.32960557     -0.67762718
H        1.92986422      0.41644410     -1.30121015
H        2.67300366     -0.74779240     -0.20301720
H        2.17034434      0.83306328      0.39594083
14
step=12 target=180.00deg measured=180.00deg E=-8574.9655kcal/mol converged=True
C       -1.95459364     -0.09330053     -0.03417918
C       -0.55902663      0.51781554     -0.00213021
C        0.53246439     -0.54638631      0.04287849
C        1.92803209      0.06472877      0.07492749
H       -2.09267114     -0.69443877     -0.92967522
H       -2.11682422     -0.73180408      0.83200048
H       -2.71294624      0.68585788     -0.02507633
H       -0.41474792      1.13869135     -0.88942639
H       -0.47021474      1.16382422      0.87430511
H        0.39318950     -1.16959971      0.92919754
H        0.43871502     -1.19008703     -0.83487891
H        2.11754579      0.64263985     -0.82643230
H        2.68404591     -0.71337461      0.14750943
H        2.04092938      0.72551017      0.93218781
14
step=13 target=195.00deg measured=195.00deg E=-8574.5825kcal/mol converged=True
C       -1.95813400     -0.09200862     -0.03580965
C       -0.56154567      0.51889642     -0.00361331
C        0.53528388     -0.54726507      0.04187974
C        1.88785392      0.03391443      0.43872258
H       -2.08982558     -0.69661995     -0.93158060
H       -2.11211776     -0.72951562      0.83247698
H       -2.71625730      0.68877348     -0.03018988
H       -0.41683620      1.14982228     -0.88281660
H       -0.47342657      1.16019532      0.87754409
H        0.25372057     -1.31919361      0.76320893
H        0.61471791     -1.02682942     -0.93572695
H        2.21590281      0.77113389     -0.29216322
H        2.63806144     -0.75221313      0.49867923
H        1.81988578      0.52152877      1.40911428
14
step=14 target=210.00deg measured=210.00deg E=-8573.6738kcal/mol converged=True
C       -1.95602651     -0.09033919     -0.03693668
C       -0.56145234      0.52095684     -0.00502018
C        0.53590986     -0.54872670      0.03995489
C        1.77845804     -0.06382302      0.77512987
H       -2.09037225     -0.69573979     -0.93006332
H       -2.11377033     -0.72627988      0.83200423
H       -2.71656329      0.68632033     -0.03244039
H       -0.41958267      1.15646400     -0.88026058
H       -0.47843094      1.15686950      0.87855201
H        0.15184127     -1.43492416      0.54899606
H        0.80278671     -0.84441118     -0.97561867
H        2.21542609      0.79318216      0.26834043
H        2.52725008     -0.85024750      0.82497216
H        1.52857577      0.23321455      1.79183535
14
step=15 target=225.00deg measured=225.00deg E=-8572.7685kcal/mol converged=True
C       -1.95935741     -0.09023034     -0.03740690
C       -0.56354204      0.52163790     -0.00519390
C        0.53783938     -0.54955215      0.04063392
C        1.61667154     -0.22109981      1.06628487
H       -2.09012600     -0.69665257     -0.93205597
H       -2.11331088     -0.72477074      0.83274641
H       -2.71869373      0.68855142     -0.03388285
H       -0.42309062      1.16042049     -0.87906486
H       -0.48056489      1.15806794      0.87921170
H        0.09006782     -1.51214560      0.29950824
H        0.99116502     -0.65743548     -0.94642077
H        2.11414503      0.71320520      0.81164997
H        2.36326588     -1.01127379      1.10270204
H        1.17718330     -0.11716958      2.05601105
14
step=16 target=240.00deg measured=240.00deg E=-8572.4079kcal/mol converged=True
C       -1.95868310     -0.08881388     -0.03702313
C       -0.56342617      0.52209957     -0.00498703
C        0.53774167     -0.54999561      0.04038232
C        1.40604462     -0.42895601      1.28632963
H       -2.09103811     -0.69488884     -0.93069980
H       -2.11441070     -0.72376288      0.83303204
H       -2.72009609      0.68810266     -0.03496871
H       -0.42888492      1.16089455     -0.87897124
H       -0.48187039      1.15961282      0.87626076
H        0.07803131     -1.53905399      0.03026631
H        1.16787716     -0.47792449     -0.84716722
H        1.91851636      0.53049789      1.30434499
H        2.15522016     -1.21724967      1.31247547
H        0.79471006     -0.50710250      2.18330870
14
step=17 target=255.00deg measured=255.00deg E=-8572.8341kcal/mol converged=True
C       -1.96079042     -0.08937969     -0.03392430
C       -0.56413658      0.52154147     -0.00228672
C        0.53605665     -0.55172070      0.04189623
C        1.16356035     -0.67356483      1.42618682
H       -2.09226292     -0.69287439     -0.92992103
H       -2.11933387     -0.72456096      0.83560792
H       -2.72059016      0.68931600     -0.03284839
H       -0.44128615      1.14648433     -0.88953393
H       -0.47048889      1.17222337      0.86932404
H        0.11471854     -1.51459161     -0.25342721
H        1.32455887     -0.30842216     -0.67359200
H        1.64272094      0.26117993      1.71071848
H        1.91543367     -1.45981187      1.43905869
H        0.40503591     -0.91207913      2.16944251
14
step=18 target=270.00deg measured=270.00deg E=-8573.6960kcal/mol converged=True
C       -1.95945391     -0.08978927     -0.03313067
C       -0.56245165      0.51874957     -0.00143658
C        0.53322317     -0.55004147      0.04260992
C        0.90558287     -0.93441274      1.46968617
H       -2.09146218     -0.69326131     -0.92826350
H       -2.12224698     -0.72489643      0.83418525
H       -2.71876285      0.68897566     -0.03108441
H       -0.43500424      1.13957920     -0.89145580
H       -0.46744441      1.17144599      0.86796035
H        0.19755989     -1.43594137     -0.49905566
H        1.42913517     -0.17920448     -0.46100515
H        1.30235797     -0.07436431      2.00424566
H        1.66097076     -1.71697743      1.47298767
H        0.03538979     -1.30030979      2.00911466
14
step=19 target=285.00deg measured=285.00deg E=-8574.2447kcal/mol converged=True
C       -1.96086040     -0.09031884     -0.03362020
C       -0.56262925      0.51744777     -0.00147357
C        0.53247747     -0.54964654      0.04361757
C        0.65247835     -1.19689821      1.41916426
H       -2.09095636     -0.69427898     -0.92935886
H       -2.12593355     -0.72350445      0.83380266
H       -2.71793309      0.69021468     -0.03142318
H       -0.43027897      1.13689699     -0.89256807
H       -0.46570827      1.17067806      0.87039289
H        0.31952308     -1.31680318     -0.70629950
H        1.49319118     -0.09588049     -0.21408137
H        0.92485976     -0.45322748      2.16535629
H        1.41410439     -1.97296092      1.41218947
H       -0.28941339     -1.65058489      1.71514361
14
step=20 target=300.00deg measured=300.00deg E=-8574.1663kcal/mol converged=True
C       -1.98379885     -0.06619529     -0.04067522
C       -0.57290191      0.50583215     -0.00203985
C        0.52641451     -0.55424757      0.05713917
C        0.44706514     -1.46164557      1.27766003
H       -2.11564856     -0.69800383     -0.91641000
H       -2.19591580     -0.65662794      0.84447640
H       -2.71279682      0.73896938     -0.09684982
H       -0.41331823      1.12982445     -0.88271581
H       -0.48391532      1.15099742      0.87586826
H        0.46283713     -1.17418892     -0.84091997
H        1.49705676     -0.05622021      0.04145525
H        0.52953625     -0.87885008      2.19255124
H        1.26393889     -2.17957225      1.26414816
H       -0.48845730     -2.01052606      1.30267770
14
step=21 target=315.00deg measured=315.00deg E=-8573.4741kcal/mol converged=True
C       -1.99516383     -0.05172368     -0.03669542
C       -0.57693902      0.50593603      0.00100998
C        0.52559515     -0.55923330      0.05685499
C        0.26708664     -1.68706967      1.04928934
H       -2.12752707     -0.72351181     -0.88272190
H       -2.22344582     -0.59222769      0.87693050
H       -2.70919366      0.76267682     -0.14237318
H       -0.40473343      1.13515646     -0.87435493
H       -0.49547380      1.14757460      0.88432123
H        0.63559097     -1.00841026     -0.93547374
H        1.46972037     -0.06628832      0.29658307
H        0.12023475     -1.29595152      2.05429737
H        1.12229250     -2.35955572      1.07458557
H       -0.61126466     -2.25898708      0.76577753
14
step=22 target=330.00deg measured=330.00deg E=-8572.0896kcal/mol converged=True
C       -1.99598262     -0.05096767     -0.03792260
C       -0.57835870      0.50731753      0.00026678
C        0.52725075     -0.56037496      0.05751189
C        0.12486823     -1.85105412      0.76109848
H       -2.12712175     -0.72352017     -0.88292326
H       -2.22475493     -0.59110746      0.87637823
H       -2.70941507      0.76308066     -0.14136534
H       -0.40669593      1.13666307     -0.87389352
H       -0.49584236      1.14714655      0.88314804
H        0.82312074     -0.81579744     -0.96370785
H        1.39968034     -0.12901546      0.54995049
H       -0.21077364     -1.65270523      1.77675233
H        0.97810329     -2.52307495      0.81343309
H       -0.67305097     -2.35394603      0.22215647
14
step=23 target=345.00deg measured=345.00deg E=-8570.6338kcal/mol converged=True
C       -2.01058279     -0.03527934     -0.04274624
C       -0.58418196      0.50568546     -0.00179656
C        0.52621805     -0.56577858      0.06076245
C        0.05694450     -1.97021105      0.42993859
H       -2.15742358     -0.68956498     -0.89975724
H       -2.25487422     -0.57929552      0.86550687
H       -2.71032094      0.79223212     -0.13987960
H       -0.42442639      1.13554311     -0.87813366
H       -0.50306277      1.15562232      0.87519211
H        1.01756307     -0.62823588     -0.91534542
H        1.28610650     -0.25187016      0.77786795
H       -0.43938588     -1.97596394      1.39830987
H        0.91634366     -2.63387342      0.49942977
H       -0.62029649     -2.37190175     -0.31875687
