14
step=0 target=0.00deg measured=0.58deg E=-26.9469kcal/mol converged=True
C       -1.93891329     -0.15406362     -0.00615352
C       -0.56812229      0.52341360      0.00568236
C        0.56215009     -0.51579404      0.00679425
C        1.94269941      0.14984573     -0.00842449
H       -2.06880093     -0.78063800     -0.89548676
H       -2.07788667     -0.79497178      0.87105552
H       -2.74700424      0.58613023     -0.00452228
H       -0.46778081      1.18682153     -0.87407405
H       -0.47769608      1.17786321      0.89256943
H        0.46626656     -1.16977586      0.89355549
H        0.45388735     -1.18496245     -0.86735072
H        1.87297137      1.24274524     -0.00702541
H        2.51584782     -0.13452950     -0.89712653
H        2.53517748     -0.13530272      0.86745844
14
step=1 target=15.00deg measured=58.80deg E=-28.1590kcal/mol converged=True
C       -1.93484629     -0.15547598     -0.03621474
C       -0.56229978      0.51722819     -0.06891843
C        0.56232238     -0.51270421      0.10847891
C        1.93480400      0.15162213     -0.00321435
H       -2.08772078     -0.80479615     -0.90529283
H       -2.05650989     -0.77204342      0.86144397
H       -2.74104565      0.58625611     -0.03817872
H       -0.43123484      1.06299077     -1.02210113
H       -0.49551979      1.28185491      0.72808784
H        0.46331514     -1.01038259      1.09155260
H        0.46570305     -1.31354014     -0.64808485
H        2.05929998      0.93976354      0.74760158
H        2.07902008      0.60657796     -0.98947736
H        2.74219303     -0.57389163      0.14464863
14
step=2 target=30.00deg measured=60.29deg E=-28.1814kcal/mol converged=True
C       -1.93104763     -0.16447538     -0.04582473
C       -0.56382038      0.51782641     -0.10974316
C        0.55832966     -0.49517212      0.15732029
C        1.93530373      0.14918616      0.00152657
H       -2.03382619     -0.92688873     -0.82632625
H       -2.08779722     -0.66014627      0.91890588
H       -2.74330940      0.55772505     -0.18187749
H       -0.41986525      0.98924995     -1.09971364
H       -0.51333831      1.34131500      0.62666852
H        0.44949334     -0.91425203      1.17524799
H        0.46138987     -1.35277839     -0.53489886
H        2.07344717      0.97858431      0.70303049
H        2.08227712      0.54504781     -1.00923391
H        2.73318263     -0.57785376      0.18896591
14
step=3 target=45.00deg measured=57.72deg E=-28.1802kcal/mol converged=True
C       -1.93643609     -0.15883645     -0.04676824
C       -0.55957826      0.49913953     -0.13528379
C        0.56261381     -0.50048142      0.17589506
C        1.93272215      0.15819216      0.00987615
H       -2.05227381     -0.94923998     -0.79611002
H       -2.10544494     -0.61016543      0.93700218
H       -2.73390209      0.57362302     -0.21466754
H       -0.41017458      0.92496365     -1.14513604
H       -0.50366330      1.35374948      0.56473526
H        0.45170376     -0.88958515      1.20516915
H        0.48130940     -1.38096707     -0.48887026
H        2.03599675      1.03882801      0.65339972
H        2.09581341      0.48589291     -1.02221347
H        2.74040233     -0.53439687      0.26796460
14
step=4 target=60.00deg measured=59.87deg E=-28.1953kcal/mol converged=True
C       -1.93420315     -0.16073518     -0.04456111
C       -0.56039762      0.50386366     -0.13743181
C        0.56118091     -0.49859770      0.17223533
C        1.93385043      0.15562583      0.01176567
H       -2.04628071     -0.95713235     -0.78809528
H       -2.09950494     -0.60578728      0.94268197
H       -2.73732650      0.56452292     -0.21707889
H       -0.41577398      0.93211904     -1.14757308
H       -0.50454793      1.35786002      0.56334352
H        0.44433463     -0.88835226      1.20073043
H        0.48006436     -1.37612596     -0.49606449
H        2.04920812      1.01052532      0.68752619
H        2.08423677      0.51890865     -1.01122363
H        2.74152048     -0.55122034      0.23291279
14
step=5 target=75.00deg measured=61.69deg E=-28.1930kcal/mol converged=True
C       -1.93341100     -0.16010076     -0.02188221
C       -0.56501862      0.51414804     -0.12771656
C        0.55932294     -0.50119037      0.12027972
C        1.93713182      0.15349693      0.02261330
H       -2.02661219     -0.98490507     -0.73724293
H       -2.09791588     -0.57125388      0.98030566
H       -2.74446375      0.54754561     -0.22536347
H       -0.44686025      0.97698146     -1.12512260
H       -0.49466072      1.34307377      0.60108071
H        0.43153971     -0.96297282      1.11764910
H        0.48414278     -1.33068817     -0.60803000
H        2.06530331      0.93630586      0.77781377
H        2.09871382      0.61154226     -0.95894216
H        2.73497200     -0.58155665      0.17505215
14
step=6 target=90.00deg measured=61.18deg E=-28.1921kcal/mol converged=True
C       -1.93262366     -0.15352050      0.00081837
C       -0.56154691      0.51625483     -0.08890538
C        0.56207140     -0.51968076      0.05450168
C        1.93177874      0.15749187      0.02399145
H       -2.04163827     -0.94425016     -0.75013530
H       -2.09276742     -0.60841320      0.98484721
H       -2.73940577      0.56935131     -0.16187792
H       -0.45935663      1.04857488     -1.05342316
H       -0.46518336      1.29195891      0.69380253
H        0.44082309     -1.08539578      0.99722475
H        0.48880918     -1.26754013     -0.75703803
H        2.04364085      0.86595383      0.85241913
H        2.08357260      0.71139720     -0.90891602
H        2.73973676     -0.57780940      0.10522785
14
step=7 target=105.00deg measured=59.81deg E=-28.1894kcal/mol converged=True
C       -1.93282413     -0.15674360      0.01968272
C       -0.56398940      0.52293467     -0.01730879
C        0.56316998     -0.51942002     -0.03121849
C        1.93396266      0.15543454      0.01575964
H       -2.06004892     -0.84438277     -0.82357960
H       -2.06718164     -0.73408574      0.94099025
H       -2.74421527      0.57744823     -0.03045613
H       -0.48927321      1.17311705     -0.90879894
H       -0.44973744      1.19243327      0.85584357
H        0.44965746     -1.20824803      0.82714890
H        0.48213337     -1.15105406     -0.93568667
H        2.04749732      0.76210759      0.92057630
H        2.08619518      0.81599304     -0.84460948
H        2.74084583     -0.58501136      0.01089151
14
step=8 target=120.00deg measured=119.95deg E=-26.9264kcal/mol converged=True
C       -1.93637265     -0.15802116      0.01802735
C       -0.56776007      0.52172625     -0.01689460
C        0.56257869     -0.51698691     -0.02895968
C        1.93969755      0.15517563      0.01439604
H       -2.06587603     -0.84240669     -0.82722991
H       -2.07060466     -0.73936706      0.93707531
H       -2.74626878      0.57845737     -0.02667875
H       -0.48913931      1.17090106     -0.90884551
H       -0.45562336      1.18969435      0.85840962
H        0.44568032     -1.20519421      0.82892886
H        0.47504675     -1.15178180     -0.93001360
H        2.50792292     -0.15301801      0.89860422
H        1.86429431      1.24764290      0.04749141
H        2.53884715     -0.09718598     -0.86665676
14
step=9 target=135.00deg measured=175.33deg E=-28.0996kcal/mol converged=True
C       -1.93156365     -0.16186437     -0.04954710
C       -0.56377320      0.52068045     -0.04835678
C        0.56196484     -0.50886958      0.12329295
C        1.93232669      0.15276671     -0.01938764
H       -2.07673972     -0.76103128     -0.95492957
H       -2.04512716     -0.82928089      0.81188381
H       -2.74364085      0.57226770     -0.00810154
H       -0.42207029      1.08429361     -0.98958148
H       -0.51483210      1.26984531      0.76409110
H        0.47676885     -0.99621334      1.11290367
H        0.45384887     -1.31917617     -0.62188474
H        2.73931898     -0.55927628      0.18340471
H        2.04839515      0.99020793      0.67792508
H        2.08576551      0.54287058     -1.03202263
14
step=10 target=150.00deg measured=180.67deg E=-28.1861kcal/mol converged=True
C       -1.93230971     -0.16708274     -0.04525868
C       -0.56476892      0.51409620     -0.10204815
C        0.56126769     -0.49755039      0.15132291
C        1.93483890      0.15585172     -0.00104658
H       -2.03266202     -0.92544152     -0.82968446
H       -2.09159807     -0.66609198      0.91695086
H       -2.74377290      0.55616620     -0.18001577
H       -0.42316537      0.99649153     -1.08765634
H       -0.51430701      1.32899948      0.64435672
H        0.45892117     -0.92969106      1.16455341
H        0.46652018     -1.34780919     -0.55046712
H        2.73530137     -0.57173155      0.16885269
H        2.07299244      0.97437467      0.71449024
H        2.07330182      0.57042261     -1.00553531
14
step=11 target=165.00deg measured=179.06deg E=-28.1897kcal/mol converged=True
C       -1.93469529     -0.16476532     -0.04461883
C       -0.56156627      0.50076555     -0.13410319
C        0.56289666     -0.49881226      0.17008105
C        1.93297719      0.16167696      0.01000685
H       -2.05006270     -0.95142527     -0.79824936
H       -2.09579590     -0.62373721      0.93690918
H       -2.73735733      0.56388315     -0.20375782
H       -0.41637287      0.93521230     -1.14166136
H       -0.50787024      1.35240509      0.57094715
H        0.45127382     -0.89444887      1.19671694
H        0.48531071     -1.37426501     -0.50116941
H        2.74192172     -0.53991646      0.24138670
H        2.04260418      1.02404374      0.67754541
H        2.08589898      0.51651419     -1.01562897
14
step=12 target=180.00deg measured=180.00deg E=-28.1897kcal/mol converged=False
C       -1.93469529     -0.16476532     -0.04461883
C       -0.56156627      0.50076555     -0.13410319
C        0.56289666     -0.49881226      0.17008105
C        1.93297719      0.16167696      0.01000685
H       -2.05006270     -0.95142527     -0.79824936
H       -2.09579590     -0.62373721      0.93690918
H       -2.73735733      0.56388315     -0.20375782
H       -0.41637287      0.93521230     -1.14166136
H       -0.50787024      1.35240509      0.57094715
H        0.45127382     -0.89444887      1.19671694
H        0.48531071     -1.37426501     -0.50116941
H        2.74229698     -0.54461157      0.22522583
H        2.04887983      1.01390052      0.68940648
H        2.07923555      0.53137522     -1.01134278
14
step=13 target=195.00deg measured=180.48deg E=-28.2057kcal/mol converged=True
C       -1.93268981     -0.16242664     -0.02096735
C       -0.56325365      0.50931694     -0.12236571
C        0.56169387     -0.50658783      0.11603458
C        1.93301942      0.16196159      0.02115117
H       -2.03440459     -0.98017147     -0.74296330
H       -2.09678929     -0.58265845      0.97738522
H       -2.73999870      0.55099489     -0.21623763
H       -0.44118884      0.98014613     -1.11559190
H       -0.48884498      1.33294154      0.61216485
H        0.43750372     -0.98098258      1.10754190
H        0.48981953     -1.32795039     -0.62159648
H        2.73723633     -0.56397833      0.18283332
H        2.04849273      0.95397852      0.76940631
H        2.09041601      0.61461995     -0.96413813
14
step=14 target=210.00deg measured=180.02deg E=-28.1823kcal/mol converged=True
C       -1.93418187     -0.15981617      0.00681626
C       -0.56510189      0.51529112     -0.08564263
C        0.56469466     -0.51649347      0.03841774
C        1.93436352      0.16245357      0.02689755
H       -2.04116787     -0.95633887     -0.73774408
H       -2.09318204     -0.60855457      0.99378562
H       -2.74370727      0.55908052     -0.16098741
H       -0.47141407      1.05988687     -1.04379760
H       -0.46744760      1.27988708      0.70785409
H        0.43783155     -1.10168000      0.96866111
H        0.49760600     -1.24720703     -0.78951083
H        2.74044312     -0.57353197      0.11505185
H        2.04139601      0.86731534      0.85852891
H        2.09772472      0.72198144     -0.90030230
14
step=15 target=225.00deg measured=180.25deg E=-28.1989kcal/mol converged=True
C       -1.93452768     -0.16246746      0.01693492
C       -0.56595758      0.51883805     -0.00862575
C        0.56580439     -0.51774028     -0.03275465
C        1.93413163      0.16260399      0.01156909
H       -2.07031021     -0.82342133     -0.84620468
H       -2.06408496     -0.76902286      0.92007022
H       -2.74465455      0.57469555     -0.00257119
H       -0.48906444      1.18025265     -0.89202013
H       -0.45435502      1.17762822      0.87311637
H        0.46145743     -1.20981168      0.82388323
H        0.48304436     -1.14441645     -0.94032314
H        2.74322123     -0.57624975     -0.00997791
H        2.05473452      0.75926700      0.92308195
H        2.07908917      0.83279318     -0.84347782
14
step=16 target=240.00deg measured=240.13deg E=-26.9386kcal/mol converged=True
C       -1.93772425     -0.16532703      0.01418340
C       -0.57104981      0.52002551     -0.00660756
C        0.56507250     -0.51190449     -0.02846744
C        1.94204911      0.16094030      0.00802506
H       -2.07310296     -0.82085671     -0.85268062
H       -2.06607321     -0.77779575      0.91322331
H       -2.74959317      0.57005900     -0.00013955
H       -0.49307337      1.18222554     -0.89011773
H       -0.46589385      1.17696027      0.87781756
H        0.45595883     -1.20179000      0.82914042
H        0.47409304     -1.14474992     -0.93100349
H        2.53564763     -0.08899067     -0.87744536
H        2.51675924     -0.15200239      0.88593408
H        1.86711444      1.25246019      0.04582804
14
step=17 target=255.00deg measured=297.15deg E=-28.1269kcal/mol converged=True
C       -1.93356186     -0.16614795     -0.04898385
C       -0.56496103      0.51519843     -0.04317503
C        0.56586662     -0.51099223      0.11542621
C        1.93207554      0.16204815     -0.01982038
H       -2.07459618     -0.77489358     -0.94857110
H       -2.05980930     -0.82323301      0.81848380
H       -2.74335185      0.57138857     -0.02274737
H       -0.42522959      1.09009330     -0.97792434
H       -0.51341742      1.25492051      0.77783438
H        0.48366630     -1.00857200      1.09977395
H        0.46115314     -1.31319945     -0.63863122
H        2.06788386      0.59593967     -1.01666861
H        2.74569932     -0.55301591      0.14052546
H        2.05624226      0.96847600      0.71082631
14
step=18 target=270.00deg measured=300.15deg E=-28.1733kcal/mol converged=True
C       -1.92842939     -0.17516735     -0.04406803
C       -0.56737519      0.51849880     -0.10023044
C        0.56003250     -0.49337686      0.14514845
C        1.93381825      0.15950146     -0.00090926
H       -2.02534929     -0.92110735     -0.84101496
H       -2.07332532     -0.69225975      0.91111897
H       -2.74900060      0.54041651     -0.16034764
H       -0.43181198      1.00825009     -1.08237738
H       -0.51921555      1.32834728      0.65115451
H        0.45477029     -0.93168201      1.15561128
H        0.46485375     -1.33921228     -0.56207436
H        2.07696172      0.57671827     -1.00388927
H        2.73484938     -0.56815842      0.17037891
H        2.07014849      0.97481010      0.71789651
14
step=19 target=285.00deg measured=298.94deg E=-28.1925kcal/mol converged=True
C       -1.93179133     -0.17045624     -0.04280338
C       -0.56230725      0.50291102     -0.12972622
C        0.56382092     -0.49926103      0.16183982
C        1.93105212      0.16736322      0.01000955
H       -2.03810059     -0.95627029     -0.79891368
H       -2.09147987     -0.63177575      0.93785461
H       -2.74033101      0.55156954     -0.20128650
H       -0.42236542      0.94548524     -1.13366403
H       -0.50684917      1.34582511      0.58356944
H        0.44987655     -0.90668409      1.18370617
H        0.48364511     -1.36634810     -0.51996791
H        2.08251314      0.53449441     -1.01112504
H        2.74365693     -0.53165623      0.23327048
H        2.03276918      1.02291286      0.68712845
14
step=20 target=300.00deg measured=300.00deg E=-28.1928kcal/mol converged=False
C       -1.93179133     -0.17045624     -0.04280338
C       -0.56230725      0.50291102     -0.12972622
C        0.56382092     -0.49926103      0.16183982
C        1.93105212      0.16736322      0.01000955
H       -2.03810059     -0.95627029     -0.79891368
H       -2.09147987     -0.63177575      0.93785461
H       -2.74033101      0.55156954     -0.20128650
H       -0.42236542      0.94548524     -1.13366403
H       -0.50684917      1.34582511      0.58356944
H        0.44987655     -0.90668409      1.18370617
H        0.48364511     -1.36634810     -0.51996791
H        2.07496027      0.55113253     -1.00608747
H        2.74409697     -0.53670987      0.21504458
H        2.03987029      1.01136768      0.70038382
14
step=21 target=315.00deg measured=300.71deg E=-28.2027kcal/mol converged=True
C       -1.93161819     -0.16916784     -0.02051227
C       -0.56590180      0.51082229     -0.11816659
C        0.56293466     -0.50377286      0.10919263
C        1.93373227      0.16674622      0.02059295
H       -2.02522600     -0.98183959     -0.74949380
H       -2.09316328     -0.59816788      0.97454778
H       -2.74486290      0.53963226     -0.20992098
H       -0.45175909      0.99054085     -1.10799146
H       -0.49372892      1.32708654      0.62435703
H        0.44056204     -0.98470639      1.09785901
H        0.48911520     -1.31992177     -0.63406989
H        2.08952814      0.63563312     -0.95735666
H        2.73869094     -0.56119578      0.17075873
H        2.04968719      0.94690958      0.78131399
14
step=22 target=330.00deg measured=300.36deg E=-28.1825kcal/mol converged=True
C       -1.93578304     -0.16333793      0.00553978
C       -0.56549416      0.50970496     -0.07921668
C        0.56825807     -0.51873077      0.03534183
C        1.93303781      0.17085418      0.02491905
H       -2.04568553     -0.95110550     -0.74758783
H       -2.09862297     -0.62090230      0.98731730
H       -2.74224012      0.56049817     -0.15755212
H       -0.47428166      1.06308459     -1.03292797
H       -0.46711972      1.26736494      0.72120300
H        0.44891250     -1.11037969      0.96250226
H        0.50529515     -1.24445928     -0.79720513
H        2.08713305      0.74266293     -0.89682799
H        2.74625307     -0.55927435      0.09953402
H        2.03627893      0.86712432      0.86441815
14
step=23 target=345.00deg measured=301.23deg E=-28.1943kcal/mol converged=True
C       -1.93293560     -0.16820634      0.01882997
C       -0.56713031      0.51798482     -0.00837259
C        0.56684975     -0.51608595     -0.04042099
C        1.93273463      0.16790516      0.01398749
H       -2.06393095     -0.83347613     -0.84156552
H       -2.05946195     -0.77248520      0.92386740
H       -2.74636803      0.56508534     -0.00337595
H       -0.49434602      1.18351563     -0.88878524
H       -0.45560440      1.17369869      0.87560740
H        0.46272116     -1.21625039      0.80939761
H        0.48554552     -1.13498902     -0.95332403
H        2.06984607      0.86228368     -0.82307862
H        2.74559763     -0.56533378     -0.02854440
H        2.05346250      0.74218005      0.93949653
