[Molden Format]
[Title]
[Atoms] AU
C      1     6 -0.22924267617771E+01 -0.13008874641887E+01  0.00000000000000E+00
C      2     6 -0.22729625826935E+01  0.13349025344319E+01  0.18897261246204E-03
C      3     6 -0.19464179083591E-01 -0.26357899986206E+01  0.00000000000000E+00
C      4     6  0.19653151696053E-01  0.26357899986206E+01 -0.18897261246204E-03
C      5     6  0.22729625826935E+01 -0.13347135618194E+01  0.00000000000000E+00
C      6     6  0.22924267617771E+01  0.13008874641887E+01  0.00000000000000E+00
H      7     1 -0.40774620590935E+01 -0.23137806669853E+01  0.00000000000000E+00
H      8     1 -0.40426910984005E+01  0.23742519029731E+01  0.18897261246204E-03
H      9     1 -0.34770960693016E-01 -0.46882215425709E+01 -0.18897261246204E-03
H     10     1  0.34770960693016E-01  0.46880325699584E+01  0.00000000000000E+00
H     11     1  0.40428800710130E+01 -0.23740629303607E+01  0.18897261246204E-03
H     12     1  0.40774620590935E+01  0.23139696395977E+01  0.00000000000000E+00
[GTO]
           1 0
 s           4   1.0000000000000000     
   51.049363095579913      -0.16312063210127389     
   8.7911227406887544      -0.19911024581000730     
  0.70640422258929825       0.31882047753655751     
  0.26922813413411617       0.12706504184240380     
 p           4   1.0000000000000000     
   5.8263656140800002       0.73716451545209605     
   1.5106896018720002       0.68216371614850257     
  0.53256483288000001       0.35783053929253711     
  0.21202323690600003        5.3983030275847881E-002

           2 0
 s           4   1.0000000000000000     
   51.049363095579913      -0.16312063210127389     
   8.7911227406887544      -0.19911024581000730     
  0.70640422258929825       0.31882047753655751     
  0.26922813413411617       0.12706504184240380     
 p           4   1.0000000000000000     
   5.8263656140800002       0.73716451545209605     
   1.5106896018720002       0.68216371614850257     
  0.53256483288000001       0.35783053929253711     
  0.21202323690600003        5.3983030275847881E-002

           3 0
 s           4   1.0000000000000000     
   51.049363095579913      -0.16312063210127389     
   8.7911227406887544      -0.19911024581000730     
  0.70640422258929825       0.31882047753655751     
  0.26922813413411617       0.12706504184240380     
 p           4   1.0000000000000000     
   5.8263656140800002       0.73716451545209605     
   1.5106896018720002       0.68216371614850257     
  0.53256483288000001       0.35783053929253711     
  0.21202323690600003        5.3983030275847881E-002

           4 0
 s           4   1.0000000000000000     
   51.049363095579913      -0.16312063210127389     
   8.7911227406887544      -0.19911024581000730     
  0.70640422258929825       0.31882047753655751     
  0.26922813413411617       0.12706504184240380     
 p           4   1.0000000000000000     
   5.8263656140800002       0.73716451545209605     
   1.5106896018720002       0.68216371614850257     
  0.53256483288000001       0.35783053929253711     
  0.21202323690600003        5.3983030275847881E-002

           5 0
 s           4   1.0000000000000000     
   51.049363095579913      -0.16312063210127389     
   8.7911227406887544      -0.19911024581000730     
  0.70640422258929825       0.31882047753655751     
  0.26922813413411617       0.12706504184240380     
 p           4   1.0000000000000000     
   5.8263656140800002       0.73716451545209605     
   1.5106896018720002       0.68216371614850257     
  0.53256483288000001       0.35783053929253711     
  0.21202323690600003        5.3983030275847881E-002

           6 0
 s           4   1.0000000000000000     
   51.049363095579913      -0.16312063210127389     
   8.7911227406887544      -0.19911024581000730     
  0.70640422258929825       0.31882047753655751     
  0.26922813413411617       0.12706504184240380     
 p           4   1.0000000000000000     
   5.8263656140800002       0.73716451545209605     
   1.5106896018720002       0.68216371614850257     
  0.53256483288000001       0.35783053929253711     
  0.21202323690600003        5.3983030275847881E-002

           7 0
 s           3   1.0000000000000000     
   3.3702276975336001       0.27359110588908298     
  0.61389118221497996       0.26460540653860526     
  0.16614291148415999        8.2465947534082318E-002

           8 0
 s           3   1.0000000000000000     
   3.3702276975336001       0.27359110588908298     
  0.61389118221497996       0.26460540653860526     
  0.16614291148415999        8.2465947534082318E-002

           9 0
 s           3   1.0000000000000000     
   3.3702276975336001       0.27359110588908298     
  0.61389118221497996       0.26460540653860526     
  0.16614291148415999        8.2465947534082318E-002

          10 0
 s           3   1.0000000000000000     
   3.3702276975336001       0.27359110588908298     
  0.61389118221497996       0.26460540653860526     
  0.16614291148415999        8.2465947534082318E-002

          11 0
 s           3   1.0000000000000000     
   3.3702276975336001       0.27359110588908298     
  0.61389118221497996       0.26460540653860526     
  0.16614291148415999        8.2465947534082318E-002

          12 0
 s           3   1.0000000000000000     
   3.3702276975336001       0.27359110588908298     
  0.61389118221497996       0.26460540653860526     
  0.16614291148415999        8.2465947534082318E-002

[MO]
Sym=     1a
Ene=  -0.63876230835827341     
Spin= Alpha
Occup=     2.00000000
           1  0.27021124133903052     
           2   8.7886640298808258E-002
           3   4.9885799657015881E-002
           4   3.2258076808990941E-006
           5  0.27022992890905484     
           6   8.7154083404833493E-002
           7  -5.1170209558607772E-002
           8  -1.5328193197195373E-005
           9  0.27022902680425315     
          10   7.7530174207038089E-004
          11  0.10106888522005300     
          12  -9.8205061350666632E-008
          13  0.27029966090652452     
          14  -7.2017516527320179E-004
          15 -0.10107182848821983     
          16   1.6473227941230466E-005
          17  0.27032953456889169     
          18  -8.7144087575973583E-002
          19   5.1221695697257687E-002
          20   1.0718939190699250E-007
          21  0.27037232093101365     
          22  -8.7907762176575963E-002
          23  -4.9901262659600543E-002
          24  -2.9529523648688516E-006
          25   4.7571711217347157E-002
          26   4.7576723528276244E-002
          27   4.7567441665451460E-002
          28   4.7597032330469205E-002
          29   4.7591082790534742E-002
          30   4.7605100965126636E-002
Sym=     2a
Ene=  -0.60930296280708152     
Spin= Alpha
Occup=     2.00000000
           1  0.33257113311403619     
           2  -1.8797066560561577E-002
           3   7.9710886717111462E-002
           4   6.8768914016377631E-006
           5  0.32566311580357776     
           6  -2.2973552497697447E-002
           7  -8.3593091310621218E-002
           8  -1.3942250698597496E-005
           9   7.0031904084362209E-003
          10 -0.16229859701230737     
          11   1.6930604868777488E-003
          12   1.1694085315185281E-006
          13  -6.8592107274680165E-003
          14 -0.16232944238967156     
          15   1.6754875966535395E-003
          16   3.7133437558109617E-006
          17 -0.32555053478368207     
          18  -2.3032175982761093E-002
          19  -8.3615314147044303E-002
          20  -6.0488057525087620E-007
          21 -0.33250657424797608     
          22  -1.8851051739756465E-002
          23   7.9706369441448807E-002
          24   4.0340859904998175E-006
          25  0.10540612229836280     
          26  0.10321540112540162     
          27   2.2203772187489802E-003
          28  -2.1716370406506384E-003
          29 -0.10317849920826594     
          30 -0.10539154503511369     
Sym=     3a
Ene=  -0.60929603391980947     
Spin= Alpha
Occup=     2.00000000
           1  0.18399916795511734     
           2   8.1170907021304112E-002
           3 -0.11726356156850871     
           4   2.7250233756874588E-007
           5 -0.19593624326269360     
           6  -8.2109046113232304E-002
           7 -0.11308953591265979     
           8   1.2461589489475345E-005
           9  0.37999181935684034     
          10   3.1707244052096586E-003
          11   2.6246922652658551E-002
          12  -1.6402988244560311E-006
          13 -0.37997309749280611     
          14   3.1339094949729145E-003
          15   2.6196566830327072E-002
          16  -2.1380833673183976E-005
          17  0.19604189518336870     
          18  -8.2120337635704491E-002
          19 -0.11309509507554383     
          20   1.5411993185589473E-006
          21 -0.18397009662332306     
          22   8.1167484061982043E-002
          23 -0.11732971828585879     
          24   4.8524663109482149E-006
          25   5.8317001768160508E-002
          26  -6.2109835966201364E-002
          27  0.12042903214984541     
          28 -0.12046198179101776     
          29   6.2131851919726672E-002
          30  -5.8320581186693976E-002
Sym=     4a
Ene=  -0.56735517309183536     
Spin= Alpha
Occup=     2.00000000
           1  0.11619308761242189     
           2 -0.14720208815013627     
           3  0.18802506459765153     
           4   1.3792062276075374E-005
           5  0.17957275906411363     
           6 -0.15056047015361942     
           7 -0.14894548980349392     
           8   3.6880459869280379E-006
           9 -0.29578208212850154     
          10   3.2117781090955373E-002
          11   8.9319863599711002E-002
          12   9.8865153127953256E-006
          13 -0.29572292414648921     
          14  -3.2154231804157385E-002
          15  -8.9349549189157912E-002
          16  -9.2212295929764059E-006
          17  0.17948725609692678     
          18  0.15057853744981664     
          19  0.14899121856836328     
          20   7.2117902469740842E-006
          21  0.11619057984736399     
          22  0.14719453540083369     
          23 -0.18802886266172444     
          24   7.5504586583096944E-006
          25   6.6047940149816881E-002
          26  0.10204750901393472     
          27 -0.16805075054363294     
          28 -0.16805870340862666     
          29  0.10200212955391841     
          30   6.6026310762667281E-002
Sym=     5a
Ene=  -0.56734915908245231     
Spin= Alpha
Occup=     2.00000000
           1  0.27442984206374471     
           2  -2.2937291239052329E-002
           3 -0.12801824408531443     
           4   6.4671526333755076E-007
           5 -0.23783760332615125     
           6  -1.6143485816500040E-002
           7 -0.16975281112805693     
           8   1.0070071883037829E-005
           9  -3.6550408030925977E-002
          10 -0.25446033834512505     
          11   1.2951872211341406E-002
          12  -1.0013356444176139E-006
          13  -3.6590452806262219E-002
          14  0.25445392497463915     
          15  -1.2979208529522168E-002
          16  -1.1857210160833257E-005
          17 -0.23784522889705895     
          18   1.6123981623854932E-002
          19  0.16972544134484979     
          20  -6.5435559449556350E-006
          21  0.27435193317963935     
          22   2.2935094478473587E-002
          23  0.12803373645827087     
          24  -1.0944947315739774E-005
          25  0.15595134600640062     
          26 -0.13516049494666421     
          27  -2.0758298286333864E-002
          28  -2.0809166801146136E-002
          29 -0.13514794974557306     
          30  0.15591735192194661     
Sym=     6a
Ene=  -0.52938856616205487     
Spin= Alpha
Occup=     2.00000000
           1  -6.2765797066113224E-002
           2  0.19736227718759936     
           3  0.11202511900675018     
           4   2.9196882455700136E-007
           5  -6.2755943938054323E-002
           6  0.19569673219936562     
           7 -0.11492837963838136     
           8  -1.0011113714930043E-005
           9  -6.2810023023219849E-002
          10   1.6785151449584422E-003
          11  0.22693562493649852     
          12   5.0582360429685722E-006
          13  -6.2770390703301024E-002
          14  -1.6992914431591070E-003
          15 -0.22698508792161490     
          16  -4.1024634972011984E-006
          17  -6.2787645990772287E-002
          18 -0.19570700698528679     
          19  0.11493601404053461     
          20  -7.7629444697870123E-006
          21  -6.2752423100234281E-002
          22 -0.19741112843164815     
          23 -0.11201997306384961     
          24  -5.9819361617260187E-006
          25 -0.18886496579970438     
          26 -0.18886852611821409     
          27 -0.18888110049169896     
          28 -0.18890823800815881     
          29 -0.18888593821513713     
          30 -0.18888474692207710     
Sym=     7a
Ene=  -0.49487352624339970     
Spin= Alpha
Occup=     2.00000000
           1 -0.19067106468319278     
           2  0.14425729718736774     
           3   8.1871964685350393E-002
           4   2.4472126329839172E-007
           5  0.19067042175473800     
           6 -0.14310189228359690     
           7   8.4045276844540037E-002
           8   1.7628432355873594E-005
           9  0.19066752389121078     
          10  -1.2330996512632609E-003
          11 -0.16595509475946912     
          12  -2.5713706207803745E-005
          13 -0.19064117296279798     
          14  -1.1673811648035730E-003
          15 -0.16596015605859590     
          16   6.9718530081634629E-006
          17 -0.19065697909144508     
          18 -0.14306234887846117     
          19   8.4025525376288129E-002
          20  -2.7159840116188695E-005
          21  0.19065894692187779     
          22  0.14420763766463066     
          23   8.1907790082513907E-002
          24  -5.3095337984055616E-006
          25 -0.23419790153223607     
          26  0.23427535152470610     
          27  0.23426780902909017     
          28 -0.23426615431438025     
          29 -0.23421973412476929     
          30  0.23416579886792530     
Sym=     8a
Ene=  -0.48832212688921023     
Spin= Alpha
Occup=     2.00000000
           1   1.9323032277437882E-005
           2  0.16363065114916750     
           3 -0.28814717543639351     
           4  -3.2322157657101322E-005
           5   1.7435906011062636E-005
           6  0.16779959336083769     
           7  0.28570653759688669     
           8  -2.2763871901948490E-005
           9   2.2954004841359675E-005
          10 -0.33139549813554231     
          11   2.4920770727295894E-003
          12  -9.4169675933905231E-006
          13  -1.7165921035840615E-005
          14 -0.33137006816015008     
          15   2.5481900845964788E-003
          16   2.2949550743095206E-005
          17  -4.1021226115597918E-005
          18  0.16778028214174728     
          19  0.28575686533960587     
          20   9.4290470194517585E-006
          21  -6.3568014619609792E-006
          22  0.16361304423932488     
          23 -0.28817212246197749     
          24   3.2243324704976349E-005
          25  -8.0620212689992582E-005
          26   8.1666478520891640E-006
          27  -4.4803715304271140E-006
          28   8.6223565904316061E-005
          29  -4.4376902405813245E-005
          30   4.0456405689645106E-005
Sym=     9a
Ene=  -0.47564847774559371     
Spin= Alpha
Occup=     2.00000000
           1  -5.8572247193752501E-002
           2 -0.21037866036937405     
           3 -0.18867030822783501     
           4  -1.2511963725331214E-004
           5  -7.3274964445356694E-002
           6 -0.28241418996355683     
           7  0.20076366688019112     
           8  -8.9129162452141494E-005
           9   1.4640913082623592E-002
          10   9.0753488959835718E-002
          11   6.8468705717639591E-002
          12  -1.3080535276247267E-004
          13  -1.4649768674325140E-002
          14   9.0787571579636073E-002
          15   6.8474664199338911E-002
          16  -1.2577221247320937E-004
          17   7.3249138476700740E-002
          18 -0.28239290374755244     
          19  0.20072255766251210     
          20  -1.4835651971353107E-004
          21   5.8555795352763132E-002
          22 -0.21038535456717966     
          23 -0.18863032717517181     
          24  -1.3720985440237869E-004
          25  0.21659389022101744     
          26  0.27078187592056058     
          27  -5.4255903646202690E-002
          28   5.4259412336171958E-002
          29 -0.27076941561175161     
          30 -0.21659916771813673     
Sym=    10a
Ene=  -0.47564074650750954     
Spin= Alpha
Occup=     2.00000000
           1  -5.0754257897825145E-002
           2 -0.24233496901713455     
           3  -5.7696516851575196E-002
           4  -2.4256979990762821E-004
           5   2.5326871778383768E-002
           6  0.14707584393460715     
           7   1.4490328348104615E-002
           8  -2.4825832255324492E-004
           9  -7.6139795273520897E-002
          10   1.4680552254558520E-002
          11 -0.35880372383524367     
          12  -2.4838299949120135E-004
          13   7.6175514834771973E-002
          14   1.4643138061060374E-002
          15 -0.35875692183496788     
          16  -2.1794704441136377E-004
          17  -2.5318324278490876E-002
          18  0.14709285289909479     
          19   1.4470527944916569E-002
          20  -2.3030504138790784E-004
          21   5.0730636088777321E-002
          22 -0.24232579748671762     
          23  -5.7688904312356716E-002
          24  -2.3576277078640314E-004
          25  0.18768975725206313     
          26  -9.3750609287061165E-002
          27  0.28137636928591442     
          28 -0.28131415000499393     
          29   9.3782118125368422E-002
          30 -0.18769893168797427     
Sym=    11a
Ene=  -0.47180579636097925     
Spin= Alpha
Occup=     2.00000000
           1  -7.3386832319205478E-005
           2  -2.3367532811840652E-004
           3  -1.3417412511889518E-004
           4  0.34171420232188082     
           5   1.9592981083911002E-005
           6   1.9108387713270971E-005
           7   8.8749357956522767E-005
           8  0.34172292816332966     
           9  -3.3573205474948314E-005
          10   3.2289782587190860E-005
          11  -2.3286885577234742E-004
          12  0.34174100827081699     
          13   6.7215716658856265E-006
          14   6.8462416279454737E-005
          15  -2.2049093700009738E-004
          16  0.34177812418708248     
          17  -7.4150333305635951E-006
          18  -1.0877325031593511E-005
          19   8.6235031833429261E-005
          20  0.34181952729745463     
          21   7.2907975334304164E-005
          22  -2.7155344058033242E-004
          23  -9.4211230832756565E-005
          24  0.34184451357499474     
          25   2.0555969371131115E-004
          26   4.1328402102212219E-005
          27   1.6858517862568172E-004
          28  -1.7676430828449981E-004
          29  -2.6639620277811207E-005
          30  -2.1834018485510892E-004
Sym=    12a
Ene=  -0.42191397476898301     
Spin= Alpha
Occup=     2.00000000
           1  -3.5484093143895183E-004
           2  0.14907312115601798     
           3 -0.27607042980271668     
           4  -1.3365206874352193E-005
           5  -1.3230335986582985E-002
           6 -0.11880747172957266     
           7  0.25927996857347030     
           8  -5.2571227153610007E-006
           9   1.3593919087034280E-002
          10 -0.14852002457143090     
          11  0.24148207237464683     
          12   3.5842744738349779E-005
          13   1.3636963755717064E-002
          14  0.14846183712922639     
          15 -0.24148928442977061     
          16  -4.1702231837315846E-005
          17  -1.3226119105140601E-002
          18  0.11889145994210941     
          19 -0.25925162148274827     
          20   1.6620958869786825E-005
          21  -3.8896492132576139E-004
          22 -0.14906266903198995     
          23  0.27601793081371856     
          24  -5.6542231577438603E-005
          25   7.6916429643376491E-003
          26  0.27192653301317166     
          27 -0.27963464712386193     
          28 -0.27960946798495617     
          29  0.27200448595484461     
          30   7.6708234256981124E-003
Sym=    13a
Ene=  -0.42190204565806921     
Spin= Alpha
Occup=     2.00000000
           1  -1.5525705900192609E-002
           2 -0.24180441771918876     
           3 -0.12855494510001295     
           4  -1.0228529641610511E-004
           5   8.0911035355076388E-003
           6  0.25860588361272213     
           7  0.15880080893401910     
           8  -9.6103440690379206E-005
           9   7.4437972850729299E-003
          10  0.27637512772609768     
          11  0.12909170212662113     
          12  -9.3059112259733828E-006
          13   7.4164852519531775E-003
          14 -0.27640961563593025     
          15 -0.12912900132833086     
          16   6.1536607020991986E-005
          17   8.0616609900637896E-003
          18 -0.25858800901605744     
          19 -0.15874121591187892     
          20   6.3810924291377973E-005
          21  -1.5477594226266267E-002
          22  0.24182035829389864     
          23  0.12852338730521590     
          24   1.1945387581801681E-004
          25  0.31844792467376726     
          26 -0.16584931545908654     
          27 -0.15256242528202194     
          28 -0.15259476411400785     
          29 -0.16590685501289448     
          30  0.31849588040436411     
Sym=    14a
Ene=  -0.40092472916324129     
Spin= Alpha
Occup=     2.00000000
           1  -1.6297876487084883E-005
           2  -4.1226022004063673E-005
           3  -5.7636555519322663E-005
           4  0.48850052791023613     
           5   4.9286013474125531E-005
           6   1.0812130099473794E-004
           7   3.2440655361794199E-005
           8  0.43395475536862937     
           9  -2.9619409245497415E-006
          10   4.3739693108860313E-005
          11   1.6407168233691840E-005
          12   5.4611897306573405E-002
          13   1.7689623915174285E-005
          14  -7.1800976765825527E-005
          15  -2.4669819678162161E-005
          16  -5.4515557128039620E-002
          17   2.0547583850633322E-005
          18  -1.8852185939020195E-005
          19  -3.2762056055740340E-005
          20 -0.43384915204977731     
          21  -3.0625630912957978E-005
          22   7.8404977050792069E-005
          23  -1.6025734305318836E-006
          24 -0.48840283487345881     
          25   7.2937567940125264E-005
          26  -5.7711783095974788E-005
          27  -3.1940252890707503E-005
          28  -2.4982492633328877E-005
          29  -3.4828491835653279E-005
          30   6.4932370088396731E-005
Sym=    15a
Ene=  -0.40090988154242330     
Spin= Alpha
Occup=     2.00000000
           1  -1.8960481730462332E-005
           2  -1.9105497989948788E-005
           3   1.6547841417155158E-006
           4  0.21900794369680196     
           5  -2.6333729284170786E-005
           6  -1.8131501985555106E-005
           7  -4.9039999933120692E-006
           8 -0.31349334387284544     
           9   2.7990476208744660E-005
          10   1.5623621512792772E-005
          11  -4.1706017560356703E-005
          12  0.53255021101440658     
          13   6.8956914931555955E-005
          14  -5.1592780163295555E-005
          15  -8.3885322384094139E-006
          16 -0.53253234272784133     
          17  -1.4924200234309359E-005
          18  -3.4036620645603315E-005
          19   3.0322836168426944E-005
          20  0.31351834983838034     
          21   8.5888093915151783E-007
          22   3.5184152648708216E-005
          23  -3.0614039084391345E-005
          24 -0.21900126377080573     
          25   4.5930943109809006E-006
          26  -7.4517807765580466E-006
          27   1.5831008468767389E-005
          28  -1.0824362221744229E-005
          29  -3.5752048169980963E-005
          30   2.2021808645276135E-005
Sym=    16a
Ene=  -0.22359005845444124     
Spin= Alpha
Occup=     0.00000000
           1  -2.1913313848943154E-005
           2  -3.0263052478302002E-007
           3  -2.3912508756612845E-005
           4  0.20818342896649605     
           5   2.8902904990424656E-005
           6   1.8560824933409196E-005
           7  -1.1383460622348646E-005
           8  0.42584995281323296     
           9  -2.7961147778516236E-005
          10   6.3758786146537196E-006
          11   4.1130919826727272E-005
          12 -0.63407028789423736     
          13   9.2638294054671390E-005
          14  -2.7328801983867292E-005
          15  -4.3128153125438825E-006
          16 -0.63406339702968861     
          17  -1.6229708157617338E-005
          18  -2.9073767977889779E-005
          19   9.4230564306455104E-006
          20  0.42586558588497131     
          21  -1.8315673513343238E-005
          22   1.1904272560057882E-005
          23  -3.1352581825438244E-006
          24  0.20818369151201702     
          25   1.9279502767358910E-005
          26  -7.8078120161909123E-006
          27   2.0229472847853773E-005
          28  -3.8315092787122876E-005
          29   1.6235742073112390E-005
          30   2.1889339331476075E-005
Sym=    17a
Ene=  -0.22356267719247480     
Spin= Alpha
Occup=     0.00000000
           1   9.2757950989924812E-006
           2  -6.3472291894811197E-006
           3   2.7345580559975243E-005
           4 -0.61202371908422204     
           5   6.4109827309283884E-005
           6   5.7324493954690608E-005
           7   1.3735055472262642E-005
           8  0.48635813413895623     
           9   6.5353404377585561E-007
          10   1.4372819520263539E-005
          11  -1.0132192785909741E-005
          12  0.12574361906585044     
          13  -3.6887883532357236E-005
          14   2.9763455994431873E-005
          15   1.0828583317899355E-005
          16  0.12562370324997585     
          17  -1.9156987886952791E-005
          18  -2.4732039589980711E-005
          19   2.1856094761697789E-005
          20  0.48622520534968033     
          21  -2.4655595868336481E-005
          22   3.2707069429733173E-005
          23  -2.5627878331928074E-005
          24 -0.61188881451609822     
          25   1.4086633649864789E-005
          26  -2.1758303005832336E-005
          27   9.9513771122865514E-006
          28   2.0404205713654525E-005
          29   3.0208795438039340E-006
          30   4.4586838517289847E-006
Sym=    18a
Ene=   -9.6120970303533448E-002
Spin= Alpha
Occup=     0.00000000
           1  -1.3678559649616124E-005
           2  -4.1385044604412245E-006
           3  -7.5908607278308351E-006
           4  0.50582861135138724     
           5  -4.1571730034050117E-005
           6  -1.9699505548952431E-005
           7   1.1690926403641489E-005
           8 -0.50584467380847109     
           9  -2.4046843393886688E-005
          10  -3.7001280958008213E-006
          11   4.5227899548392439E-005
          12 -0.50586788568910734     
          13  -8.0004824991851758E-005
          14   1.3500791491669782E-006
          15  -1.2477567082788497E-005
          16  0.50591814316850958     
          17  -3.1017887491708214E-005
          18  -3.9564038208322495E-005
          19   1.9607626687661025E-005
          20  0.50599095659097437     
          21  -2.9888872388870027E-006
          22  -1.7926041076852992E-006
          23   3.7241776560224389E-006
          24 -0.50603039926384785     
          25   3.9198889718821995E-006
          26   1.1265950819848563E-005
          27   3.4550036627559343E-005
          28   4.4491998468407398E-005
          29   4.2286337057721931E-005
          30   4.2940723872568178E-006
Sym=    19a
Ene=   0.11162676323287943     
Spin= Alpha
Occup=     0.00000000
           1  0.31890336372169642     
           2 -0.25420002949792753     
           3 -0.14463031406210689     
           4   1.9521979005874566E-005
           5  0.32056938434957499     
           6 -0.25194664523109350     
           7  0.14797485244981759     
           8  -1.8136306002122974E-005
           9  0.32076036431398008     
          10  -1.9841255604042566E-003
          11 -0.29313126594887789     
          12  -6.1384858165577859E-005
          13  0.31883495851272475     
          14   2.5088589549429122E-003
          15  0.29223244067624804     
          16   4.9971214521578323E-005
          17  0.31948375663418599     
          18  0.25294355257155660     
          19 -0.14852648349322717     
          20   6.3175763937573781E-005
          21  0.32065343211914521     
          22  0.25504642927448934     
          23  0.14450843679310307     
          24  -2.8798157106146172E-005
          25 -0.45900445337149404     
          26 -0.45979302639118164     
          27 -0.46082423181813104     
          28 -0.45879529614824593     
          29 -0.46014889395392455     
          30 -0.46076377135887570     
Sym=    20a
Ene=   0.12321939822599881     
Spin= Alpha
Occup=     0.00000000
           1  0.52962880233188347     
           2  -4.0907820444032440E-002
           3  -2.3663604565869314E-002
           4   2.9532524014068225E-006
           5 -0.52831037664313540     
           6   4.0012093838774902E-002
           7  -2.3537008154160686E-002
           8   3.3769699936768329E-005
           9 -0.52879691477438262     
          10   4.0358483139925615E-004
          11   4.6090198059003724E-002
          12   2.1535222177626838E-005
          13  0.52888025899762803     
          14   3.0820462108159676E-004
          15   4.6800721878132757E-002
          16   8.3305327310561171E-005
          17  0.52967472199059151     
          18   4.0862289913489704E-002
          19  -2.4476700043401182E-002