[Molden Format]
[Title]
[Atoms] AU
N      1     7 -0.26505298623926E+01 -0.56691783738613E-03  0.00000000000000E+00
C      2     6  0.26318215737589E+01  0.37794522492409E-03  0.00000000000000E+00
C      3     6  0.13124147935489E+01  0.22727736100810E+01  0.18897261246204E-03
C      4     6  0.13133596566112E+01 -0.22723956648561E+01  0.00000000000000E+00
C      5     6 -0.13039110259881E+01  0.21707283993515E+01 -0.18897261246204E-03
C      6     6 -0.13031551355383E+01 -0.21711063445764E+01  0.00000000000000E+00
H      7     1  0.46838751724842E+01  0.75589044984818E-03 -0.18897261246204E-03
H      8     1  0.23007415567254E+01  0.40668795927957E+01  0.18897261246204E-03
H      9     1  0.23024423102375E+01 -0.40661237023458E+01 -0.18897261246204E-03
H     10     1 -0.24213060834762E+01  0.38900012275312E+01 -0.18897261246204E-03
H     11     1 -0.24196053299640E+01 -0.38909460905935E+01  0.00000000000000E+00
[GTO]
           1 0
 s           4   1.0000000000000000     
   63.594024466941008      -0.19234388414721629     
   10.951417231523665      -0.23478107924953728     
  0.87999310257376984       0.37593753901700888     
  0.33538715296521110       0.14982889271862770     
 p           4   1.0000000000000000     
   7.2965040481495080       0.97658666315667420     
   1.8918745450712575       0.90372226730345739     
  0.66694432110824120       0.47404958461536373     
  0.26552202674130870        7.1516067715011844E-002

           2 0
 s           4   1.0000000000000000     
   51.049363095579913      -0.16312063210127389     
   8.7911227406887544      -0.19911024581000730     
  0.70640422258929825       0.31882047753655751     
  0.26922813413411617       0.12706504184240380     
 p           4   1.0000000000000000     
   5.8263656140800002       0.73716451545209605     
   1.5106896018720002       0.68216371614850257     
  0.53256483288000001       0.35783053929253711     
  0.21202323690600003        5.3983030275847881E-002

           3 0
 s           4   1.0000000000000000     
   51.049363095579913      -0.16312063210127389     
   8.7911227406887544      -0.19911024581000730     
  0.70640422258929825       0.31882047753655751     
  0.26922813413411617       0.12706504184240380     
 p           4   1.0000000000000000     
   5.8263656140800002       0.73716451545209605     
   1.5106896018720002       0.68216371614850257     
  0.53256483288000001       0.35783053929253711     
  0.21202323690600003        5.3983030275847881E-002

           4 0
 s           4   1.0000000000000000     
   51.049363095579913      -0.16312063210127389     
   8.7911227406887544      -0.19911024581000730     
  0.70640422258929825       0.31882047753655751     
  0.26922813413411617       0.12706504184240380     
 p           4   1.0000000000000000     
   5.8263656140800002       0.73716451545209605     
   1.5106896018720002       0.68216371614850257     
  0.53256483288000001       0.35783053929253711     
  0.21202323690600003        5.3983030275847881E-002

           5 0
 s           4   1.0000000000000000     
   51.049363095579913      -0.16312063210127389     
   8.7911227406887544      -0.19911024581000730     
  0.70640422258929825       0.31882047753655751     
  0.26922813413411617       0.12706504184240380     
 p           4   1.0000000000000000     
   5.8263656140800002       0.73716451545209605     
   1.5106896018720002       0.68216371614850257     
  0.53256483288000001       0.35783053929253711     
  0.21202323690600003        5.3983030275847881E-002

           6 0
 s           4   1.0000000000000000     
   51.049363095579913      -0.16312063210127389     
   8.7911227406887544      -0.19911024581000730     
  0.70640422258929825       0.31882047753655751     
  0.26922813413411617       0.12706504184240380     
 p           4   1.0000000000000000     
   5.8263656140800002       0.73716451545209605     
   1.5106896018720002       0.68216371614850257     
  0.53256483288000001       0.35783053929253711     
  0.21202323690600003        5.3983030275847881E-002

           7 0
 s           3   1.0000000000000000     
   3.3702276975336001       0.27359110588908298     
  0.61389118221497996       0.26460540653860526     
  0.16614291148415999        8.2465947534082318E-002

           8 0
 s           3   1.0000000000000000     
   3.3702276975336001       0.27359110588908298     
  0.61389118221497996       0.26460540653860526     
  0.16614291148415999        8.2465947534082318E-002

           9 0
 s           3   1.0000000000000000     
   3.3702276975336001       0.27359110588908298     
  0.61389118221497996       0.26460540653860526     
  0.16614291148415999        8.2465947534082318E-002

          10 0
 s           3   1.0000000000000000     
   3.3702276975336001       0.27359110588908298     
  0.61389118221497996       0.26460540653860526     
  0.16614291148415999        8.2465947534082318E-002

          11 0
 s           3   1.0000000000000000     
   3.3702276975336001       0.27359110588908298     
  0.61389118221497996       0.26460540653860526     
  0.16614291148415999        8.2465947534082318E-002

[MO]
Sym=     1a
Ene=  -0.66043135034198419     
Spin= Alpha
Occup=     2.00000000
           1  0.25293313366639647     
           2  0.13785846099067109     
           3   9.9120894145788270E-006
           4  -3.2533479147741892E-006
           5  0.28422196545355566     
           6 -0.10727820580612255     
           7  -2.9898604328273703E-005
           8   2.3385407704277771E-006
           9  0.26849915188170465     
          10  -4.5039931278559951E-002
          11  -9.8631359968721716E-002
          12  -1.5938831680913529E-005
          13  0.26850872608976445     
          14  -4.5069809727781414E-002
          15   9.8625225877550612E-002
          16  -6.0353240852509622E-007
          17  0.26136392798070746     
          18   5.9358745772160507E-002
          19  -9.9080932540604336E-002
          20   1.6576344183613791E-005
          21  0.26140011310826655     
          22   5.9311558020713279E-002
          23   9.9111582770817858E-002
          24  -1.1773196706907727E-006
          25   4.8507244357995062E-002
          26   4.3398003121816839E-002
          27   4.3397670501544756E-002
          28   3.5180523309141856E-002
          29   3.5191857823407516E-002
Sym=     2a
Ene=  -0.62928380642094750     
Spin= Alpha
Occup=     2.00000000
           1 -0.40946751830937472     
           2 -0.11337240714182199     
           3   4.2470256036725253E-005
           4   7.8515127014496885E-006
           5  0.37637750189500763     
           6  -2.6611687785915831E-002
           7  -2.3824469281854083E-005
           8   3.9520200772199909E-006
           9  0.18513171125134964     
          10  0.11463066347175181     
          11  -7.9459724671067808E-002
          12  -6.8372731579863263E-006
          13  0.18515567976412642     
          14  0.11463471513648020     
          15   7.9518097260707674E-002
          16   2.3026325139481041E-007
          17 -0.19712742977759989     
          18  0.11297234028342915     
          19  0.10967431055393533     
          20  -8.0721409914989070E-006
          21 -0.19726399045226481     
          22  0.11305518845831189     
          23 -0.10965688297544149     
          24   2.3336160620101343E-006
          25  0.11658837067366151     
          26   5.6453451224883565E-002
          27   5.6461641891471813E-002
          28  -4.4896011494602255E-002
          29  -4.4932394020546391E-002
Sym=     3a
Ene=  -0.62737888141529585     
Spin= Alpha
Occup=     2.00000000
           1   9.5551379200805898E-006
           2  -2.3463227273687987E-005
           3  0.17733495634803731     
           4  -8.9579491357310539E-007
           5  -5.3765629680943554E-005
           6  -3.3181450501256768E-005
           7  0.17153511707892169     
           8   3.3128161443294445E-006
           9  0.33085053924493174     
          10  -8.2010039193205209E-002
          11   1.2621304626676755E-002
          12  -1.8463164198462890E-005
          13 -0.33082525305203286     
          14   8.1945758307266636E-002
          15   1.2614459954046720E-002
          16   2.6658103316721057E-006
          17  0.33207947967029816     
          18   7.7112619860036452E-002
          19   1.8947465294592600E-002
          20   2.0966075993571084E-005
          21 -0.33200313838584733     
          22  -7.7087673674963428E-002
          23   1.8941024408781794E-002
          24   6.1886151991812313E-007
          25  -1.8503581125069177E-005
          26  0.10048733456545141     
          27 -0.10047406616990630     
          28   9.8157201842966613E-002
          29  -9.8155501526781028E-002
Sym=     4a
Ene=  -0.58876620415878145     
Spin= Alpha
Occup=     2.00000000
           1  -4.2064738410135028E-005
           2   3.6592638698795978E-005
           3 -0.31494761708492314     
           4   1.3061117124604024E-005
           5   6.5811981807199340E-005
           6  -3.6286128457723379E-005
           7  0.24768641444192771     
           8   1.1317912810052048E-005
           9  0.25298964738358326     
          10  0.13354715112420379     
          11   3.8291986350095729E-003
          12  -1.9164279604023129E-006
          13 -0.25296219557159899     
          14 -0.13347429239191477     
          15   3.8064626381272269E-003
          16   7.5540958151545911E-006
          17 -0.25475553261736056     
          18  0.17008295549990493     
          19   1.9586930867853115E-002
          20  -2.4268176893994556E-006
          21  0.25467545766201555     
          22 -0.17007489186711205     
          23   1.9481403511896568E-002
          24   5.4400014663130545E-006
          25   3.1969681448632906E-005
          26  0.13340263563887156     
          27 -0.13338418724086057     
          28 -0.12919506308618670     
          29  0.12916800825291153     
Sym=     5a
Ene=  -0.58448449843190609     
Spin= Alpha
Occup=     2.00000000
           1 -0.31574235379048637     
           2  -9.6070891776250337E-003
           3  -2.9511724028356908E-005
           4   9.5048454235184326E-006
           5 -0.29273019901530611     
           6  -9.8237370234703206E-002
           7  -3.1558036797169958E-005
           8  -9.8541884790818300E-007
           9  0.16908836594388013     
          10 -0.17698716852287139     
          11  0.15174869304886418     
          12  -1.1054534428215006E-005
          13  0.16912496331109292     
          14 -0.17697149131557618     
          15 -0.15181423414027853     
          16  -2.0563538238200819E-006
          17  0.15211004920670701     
          18  0.16902611057701819     
          19  0.17949314160116162     
          20   1.3047014776531245E-005
          21  0.15217821060034073     
          22  0.16909841790145513     
          23 -0.17947081385236782     
          24   2.3928614503712060E-006
          25 -0.16912729603145904     
          26   9.2654717995709221E-002
          27   9.2653823533834612E-002
          28   9.6903705237234544E-002
          29   9.6973835913998760E-002
Sym=     6a
Ene=  -0.54025064191703642     
Spin= Alpha
Occup=     2.00000000
           1 -0.14432765185989227     
           2  0.12127550401734388     
           3   8.4981882284723164E-005
           4   1.8099073528088617E-005
           5  -9.9368212981758644E-002
           6 -0.30009537737699410     
           7   6.7507834155922466E-006
           8   2.3923078766323190E-005
           9  -1.9664423779246563E-002
          10 -0.11812797633003011     
          11 -0.19032851177780905     
          12   5.0765606919935786E-006
          13  -1.9677881710326969E-002
          14 -0.11832577419727905     
          15  0.19023655146698931     
          16   2.0940972500569487E-005
          17 -0.10883892987297554     
          18  0.16898700500920008     
          19 -0.15908565688833781     
          20   1.8443326200193690E-005
          21 -0.10878953472255055     
          22  0.16903415223351573     
          23  0.15908267869433829     
          24   1.3990986856529168E-005
          25 -0.26058909270776670     
          26 -0.16921687470089797     
          27 -0.16923644224200407     
          28 -0.20071391073150677     
          29 -0.20069115296190018     
Sym=     7a
Ene=  -0.51550249957828331     
Spin= Alpha
Occup=     2.00000000
           1   6.1794885661562370E-005
           2   1.0150652559568361E-004
           3 -0.35540251872001771     
           4   4.2345343109870399E-005
           5  -1.1966274136420887E-004
           6   8.3769649583479397E-006
           7 -0.32564742450040579     
           8  -3.0004203886506751E-005
           9  -1.6170585258620675E-002
          10 -0.29596106841553271     
          11  0.13553822263211177     
          12  -2.2914628181433979E-005
          13   1.6327224237989744E-002
          14  0.29598298101985004     
          15  0.13547714105784148     
          16  -7.5999988051086208E-006
          17   3.2094137310040446E-002
          18  0.26699224750310435     
          19  0.18411250932234682     
          20   2.1382233248507382E-005
          21  -3.2304836046307371E-002
          22 -0.26692233861520287     
          23  0.18424619222774538     
          24   1.4572654565401480E-005
          25  -1.0532202516117053E-004
          26  -2.8269781826744278E-002
          27   2.8495280995280644E-002
          28   3.1337520516567095E-002
          29  -3.1703329349364200E-002
Sym=     8a
Ene=  -0.50674090894126966     
Spin= Alpha
Occup=     2.00000000
           1  0.22511833266649900     
           2   4.7295800757498459E-002
           3   2.1153556858448134E-004
           4   1.1545060633275464E-004
           5 -0.18642889574724963     
           6   3.3805880139550159E-003
           7   1.7241578443135777E-004
           8   7.6120016363124339E-005
           9  0.16237056388452145     
          10  0.12286387199277178     
          11  0.22920095061461557     
          12   1.0722871501903009E-004
          13  0.16237190862870696     
          14  0.12264550997949467     
          15 -0.22936505843698848     
          16   4.7724805807681302E-005
          17 -0.16031390451040492     
          18   5.4565963870582226E-002
          19 -0.19577425562968645     
          20   1.1749220370683476E-004
          21 -0.16025956627270782     
          22   5.4737982845241569E-002
          23  0.19559845833546455     
          24   7.5095701955966456E-005
          25  -9.3855394327961694E-002
          26  0.29907358054549660     
          27  0.29910613713491130     
          28 -0.23854353266138414     
          29 -0.23848512962387675     
Sym=     9a
Ene=  -0.50249354418618608     
Spin= Alpha
Occup=     2.00000000
           1  -1.2069666154373704E-005
           2  -4.3734968349018150E-005
           3   2.9245048048973205E-005
           4  0.45544354358204497     
           5   5.6717228077081594E-005
           6  -4.5914494108974383E-006
           7  -2.3931398924334598E-005
           8  0.27709127739680045     
           9  -1.6785349962783314E-005
          10  -1.9024187020781527E-005
          11  -5.0829157103616111E-005
          12  0.28920093741123232     
          13  -2.1285815934335406E-005
          14  -2.4161590249700009E-005
          15   7.3862459680246116E-005
          16  0.28920995839631602     
          17   3.0084500775648699E-006
          18  -7.7297062254595009E-005
          19   9.1672273352042105E-005
          20  0.36035182789191456     
          21   4.4301089147180606E-005
          22  -1.5694918010576237E-005
          23  -6.2238531677381344E-005
          24  0.36040129577955288     
          25   6.1047030665452055E-006
          26  -5.0647188273909346E-005
          27  -9.5447603163565381E-005
          28   9.3842933261614866E-005
          29   7.3115486357026383E-005
Sym=    10a
Ene=  -0.48964634221496206     
Spin= Alpha
Occup=     2.00000000
           1  -3.2972297370555455E-005
           2  -7.1275888922208241E-006
           3   7.5544661365936489E-002
           4   4.5967517977193203E-005
           5   1.3120311231210567E-005
           6   4.4182600373125094E-005
           7  0.11513487230734581     
           8   8.5707893930016417E-006
           9   5.8668981219048753E-002
          10 -0.18661860334871552     
          11 -0.27857665032794399     
          12  -7.6699050564440746E-006
          13  -5.8701976146296672E-002
          14  0.18663961924552541     
          15 -0.27847601691690121     
          16  -2.1008755725845912E-006
          17   6.7125411452809577E-002
          18  0.20148971812321995     
          19 -0.23037284025839119     
          20   6.1055224375804182E-005
          21  -6.7091529969393007E-002
          22 -0.20135799888591754     
          23 -0.23042942810721750     
          24   2.2404900303717249E-005
          25   6.8323328589662589E-005
          26 -0.26761461293101674     
          27  0.26753548256140458     
          28 -0.22678746136242667     
          29  0.22678002276083842     
Sym=    11a
Ene=  -0.47025001268672950     
Spin= Alpha
Occup=     2.00000000
           1  0.19129423620480768     
           2 -0.30055899930395924     
           3  -5.9036120956068907E-005
           4  -1.2289485527216848E-004
           5   2.9096352527357910E-002
           6 -0.43785213075420881     
           7  -5.4508271871967255E-005
           8   9.2543445726924606E-005
           9   8.4176319056217294E-002
          10  0.19285541710574344     
          11  -8.8364393872274571E-002
          12   4.0649623925179456E-005
          13   8.4148156869785384E-002
          14  0.19287162650495299     
          15   8.8339323829895358E-002
          16   1.0916142256162394E-005
          17  -8.2291200931421907E-002
          18 -0.20725630141939622     
          19  0.10464872717699951     
          20  -7.8278460279269422E-005
          21  -8.2345575829025630E-002
          22 -0.20730167261390561     
          23 -0.10477205639470855     
          24  -6.7649251942802533E-005
          25 -0.42069876779711757     
          26   6.7497506088478432E-002
          27   6.7586363408674910E-002
          28  0.13921127108200201     
          29  0.13923154666431264     
Sym=    12a
Ene=  -0.44003988487656670     
Spin= Alpha
Occup=     2.00000000
           1  -8.6343328053087472E-005
           2   1.2332282910397112E-004
           3 -0.30310174193639577     
           4   1.3706655105809564E-004
           5   5.2891199787792620E-006
           6  -6.0871588863026382E-005
           7  0.31995094774802479     
           8  -7.3799580483819354E-005
           9  -1.2015712713026698E-002
          10   5.8368830742251104E-002
          11 -0.27384613013910603     
          12  -1.2998296560964316E-004
          13   1.2027566413937662E-002
          14  -5.8276369315969002E-002
          15 -0.27386703860231359     
          16  -5.7248506413218759E-006
          17  -2.8279947189503978E-003
          18  -3.8319440044820359E-002
          19  0.28506497173528872     
          20  -4.7858773449507825E-005
          21   2.8620705938731204E-003
          22   3.8222659087607753E-002
          23  0.28506296633299660     
          24   1.0782712378061316E-004
          25   9.4613604579523875E-006
          26 -0.25813760068420699     
          27  0.25814791474543486     
          28  0.29671183121136546     
          29 -0.29669232589617994     
Sym=    13a
Ene=  -0.43583880777328421     
Spin= Alpha
Occup=     2.00000000
           1  -9.7491084085981890E-005
           2   1.1044834973181006E-004
           3  -9.9922439827145187E-005
           4 -0.53139072403829135     
           5  -9.6398643610012312E-006
           6   1.0550821598635615E-004
           7   2.4797441766443325E-005
           8  0.55371456882888093     
           9   1.1970013850367373E-005
          10  -4.2699337327628808E-005
          11  -5.3026439243681605E-005
          12  0.32038089533723396     
          13  -1.1813367625209869E-005
          14   2.6176135962947208E-006
          15  -8.5156600436798815E-005
          16  0.32030607345243040     
          17   5.1506664046925301E-005
          18   3.9375617573894660E-005
          19   2.4313037634135479E-005
          20 -0.17860063927216027     
          21   2.0982058848731447E-005
          22   7.4495469587323124E-006
          23   7.8639451001878357E-005
          24 -0.17882326316604036     
          25   6.1347646965808963E-005
          26  -6.6451490501729245E-005
          27   4.9826729097421089E-005
          28   4.1081384338052061E-005
          29  -6.6633029769175905E-005
Sym=    14a
Ene=  -0.41984105607095645     
Spin= Alpha
Occup=     2.00000000
           1  -1.5103032202814031E-005
           2  -5.8504622257759320E-006
           3  -4.5059556439416452E-005
           4   5.4608392944627232E-005
           5   1.1064141972234961E-005
           6   8.1821306477503161E-006
           7   4.1839729218510354E-005
           8  -1.3061104936278891E-004
           9   3.7730915525179742E-005
          10  -3.9553807451584747E-005
          11  -6.2249276392160291E-005
          12  0.46310121585383179     
          13  -2.3755829467153700E-005
          14  -3.4022877529691938E-005
          15  -8.6505091759584021E-006
          16 -0.46314435144867150     
          17  -4.7096134445764801E-005
          18  -3.8432613003382756E-005
          19   7.3608742097052554E-005
          20  0.46469568773915859     
          21   1.4635638338598246E-005
          22   1.0898243577935616E-005
          23   3.9854994191910582E-005
          24 -0.46455026388909548     
          25   2.0388763341060214E-005
          26  -6.1313100744480413E-005
          27   2.2738825845505603E-005
          28   6.3319375348451520E-005
          29  -3.9788246550721895E-005
Sym=    15a
Ene=  -0.37218309529136429     
Spin= Alpha
Occup=     2.00000000
           1 -0.46591003797353864     
           2  0.74201096023197755     
           3   1.5817498628710396E-004
           4   7.4682810982748716E-005
           5   1.2474994096336369E-002
           6  -8.3177705569674354E-002
           7  -4.5119385559907785E-005
           8  -3.6286346467767763E-005
           9  -8.6126807844095071E-002
          10  0.22678524294351479     
          11  -2.4141110441213542E-003
          12   1.2376358275058611E-005
          13  -8.6174719088672802E-002
          14  0.22685128262166346     
          15   2.5258643170621661E-003
          16  -6.1636983573470084E-005
          17   5.4839207395105054E-002
          18 -0.17710584225276846     
          19  -6.6995193666163133E-002
          20   1.7977794142983600E-006
          21   5.4838033461954462E-002
          22 -0.17714001896734077     
          23   6.6860549603218675E-002
          24   3.4029450476739599E-005
          25 -0.13909578948909160     
          26  0.10607540179948265     
          27  0.10604560335448293     
          28  0.13677241718026603     
          29  0.13684677904729781     
Sym=    16a
Ene=  -0.25672564266925924     
Spin= Alpha
Occup=     0.00000000
           1   3.3730637768829072E-005
           2  -4.5079260256632534E-006
           3   3.1565217587536334E-005
           4  0.62250874326517014     
           5   4.3547437688589655E-006
           6   5.5474966020340290E-005
           7  -3.4305633731853518E-005
           8  0.63574462272434140     
           9  -4.3592441696120440E-005
          10   3.7230323676114612E-005
          11   1.2978442644582907E-005
          12 -0.27385382230519845     
          13  -7.0734675805248579E-006
          14  -8.2422344579173955E-006
          15   1.8837182759030338E-005
          16 -0.27414223525249948     
          17   5.7292741985253667E-005
          18   6.2728140578749243E-005
          19  -6.6780620770793475E-006
          20 -0.38105712660885038     
          21  -5.9502133118852444E-007
          22   1.7584400858001696E-005
          23  -1.2588997612307239E-005
          24 -0.38097432233686107     
          25  -1.9627481686609104E-005
          26   1.1027891819897485E-005
          27  -1.1853969593623765E-005
          28  -2.5223808530865251E-005
          29   9.3748616992168725E-006
Sym=    17a
Ene=  -0.23866782181243179     
Spin= Alpha
Occup=     0.00000000
           1   1.7656652388754689E-006
           2   4.8781107414509856E-005
           3   1.3265928463182716E-005
           4   1.6763736658156908E-004
           5   1.9093069653983663E-005
           6  -9.4355213152007672E-006
           7   2.3666796031573198E-005
           8   6.6185156648879243E-005
           9  -5.2810972290779970E-005
          10   3.5480798200166559E-005
          11   2.2996211918628487E-005
          12 -0.56104612287115463     
          13   2.6421184746970946E-005
          14   2.7583339307047486E-005
          15  -2.5693790089751002E-005
          16  0.56089989021720033     
          17  -6.0679147125584332E-005
          18  -2.7292922158895054E-005
          19   3.3989239613920444E-005
          20  0.56261777764350684     
          21   2.4711008548537036E-006
          22  -9.2657073703368831E-006
          23   6.0081429116816951E-006
          24 -0.56268567908082212     
          25  -2.5694026358634793E-005
          26   7.0536130983921343E-006
          27  -1.4445898739807144E-005
          28   1.9032580516343777E-005
          29   2.8719859851380838E-006
Sym=    18a
Ene=  -0.11885842448933442     
Spin= Alpha
Occup=     0.00000000
           1   3.8056244903783422E-006
           2   2.2842384165712074E-006
           3  -1.0905180404004199E-005
           4  0.43393099335199559     
           5  -3.6704738850566889E-005
           6  -4.6875276084668223E-005
           7   6.5864970028771512E-006
           8 -0.53935162877173204     
           9   4.8385473439152951E-005
          10  -1.7607713623614827E-005
          11  -2.7935144082672686E-005
          12  0.53746967598853856     
          13   3.1219786479699624E-005
          14   1.3097147501942325E-005
          15  -3.5839464163011839E-005
          16  0.53747664095199554     
          17   3.2406981987808615E-005
          18   8.9692430233854969E-006
          19  -2.6625287247433803E-005
          20 -0.48329430182468164     
          21  -2.1257364818841589E-005
          22  -7.8479146877737632E-006
          23  -6.2467677645271616E-006
          24 -0.48330629557179278     
          25   4.6786281650790508E-005
          26  -3.4498254477607441E-006
          27  -2.7271813866008899E-005
          28   5.9485327265061676E-006
          29   4.8661258337741473E-006
Sym=    19a
Ene=   0.10867891700877133     
Spin= Alpha
Occup=     0.00000000
           1 -0.31782847337231884     
           2 -0.29245831279031564     
           3  -2.3441248656156069E-004
           4   1.7510856719586064E-005
           5 -0.15008857984257212     
           6 -0.41663862637217819     
           7  -8.0660321855624092E-005
           8   4.1958363426563061E-005
           9 -0.50376724159369901     
          10 -0.26630369832553102     
          11 -0.28101970014622146     
          12  -1.1601152480398853E-005
          13 -0.50375360884047049     
          14 -0.26636751304322759     
          15  0.28093639477843424     
          16   4.6543245488620552E-005
          17   8.6458937809061318E-002
          18  -7.5092281642375969E-002
          19 -0.19926115742826417     
          20   1.7615935031910700E-005
          21   8.6407376853257417E-002
          22  -7.5092557934366977E-002
          23  0.19896295303405526     
          24  -1.7926885699114396E-005
          25  0.47330369604535660     
          26  0.66584166176576431     
          27  0.66578317961122480     
          28   3.9851353979776759E-002
          29   3.9715780021923483E-002
Sym=    20a
Ene=   0.11146034307044811     
Spin= Alpha
Occup=     0.00000000
           1 -0.26410486812034883     
           2 -0.21791180932919957     
           3  -2.2764104248993144E-004
           4   1.4818688309086066E-005
           5  0.58534681327097526     
           6  0.21574471953343483     
           7   2.5519149772630293E-004
           8  -5.4904601205155160E-005
           9 -0.26047367590298631     
          10   5.1058371837810541E-002
          11   8.5350967546165474E-002
          12   5.1130300444834437E-005
          13 -0.26007422463121666     
          14   5.1004465985388638E-002
          15  -8.5208593839902660E-002
          16   2.6179965350012697E-005
          17  0.63073548973347582     
          18 -0.13498374705740218     
          19  0.13953081406779877     
          20   3.1574599102394877E-005
          21  0.63017117809609269     
          22 -0.13482171312673821     
          23 -0.13953819318208827     
          24  -1.2582008996641042E-005
          25 -0.56124142714943115     
          26   8.9655135382257889E-002
          27   8.9588052105559604E-002
          28 -0.57572492945915854     
          29 -0.57532869008137077     
Sym=    21a
Ene=   0.14042508366558371     
Spin= Alpha
Occup=     0.00000000
           1  -1.0446039218069145E-003
           2  -4.8327922776716730E-004
           3 -0.46352652442605236     
           4   5.0041889467061822E-006
           5  -1.4373892446300309E-003
           6  -1.1757088914009404E-004
           7  -9.4473029465251962E-002
           8   2.4463943717298570E-006
           9 -0.44655528964683983     
          10  -4.6799538121805907E-003
          11 -0.44067969107330968     
          12   6.8579091266925438E-006
          13  0.44862438973147256     
          14   5.4842710540722863E-003
          15 -0.44047676651816930     