[Molden Format]
[Title]
[Atoms] AU
N      1     7 -0.26505298623926E+01 -0.56691783738613E-03  0.00000000000000E+00
C      2     6  0.26318215737589E+01  0.37794522492409E-03  0.00000000000000E+00
C      3     6  0.13124147935489E+01  0.22727736100810E+01  0.18897261246204E-03
C      4     6  0.13133596566112E+01 -0.22723956648561E+01  0.00000000000000E+00
C      5     6 -0.13039110259881E+01  0.21707283993515E+01 -0.18897261246204E-03
C      6     6 -0.13031551355383E+01 -0.21711063445764E+01  0.00000000000000E+00
H      7     1  0.46838751724842E+01  0.75589044984818E-03 -0.18897261246204E-03
H      8     1  0.23007415567254E+01  0.40668795927957E+01  0.18897261246204E-03
H      9     1  0.23024423102375E+01 -0.40661237023458E+01 -0.18897261246204E-03
H     10     1 -0.24213060834762E+01  0.38900012275312E+01 -0.18897261246204E-03
H     11     1 -0.24196053299640E+01 -0.38909460905935E+01  0.00000000000000E+00
[GTO]
           1 0
 s           4   1.0000000000000000     
   63.594024466941008      -0.19234388414721629     
   10.951417231523665      -0.23478107924953728     
  0.87999310257376984       0.37593753901700888     
  0.33538715296521110       0.14982889271862770     
 p           4   1.0000000000000000     
   7.2965040481495080       0.97658666315667420     
   1.8918745450712575       0.90372226730345739     
  0.66694432110824120       0.47404958461536373     
  0.26552202674130870        7.1516067715011844E-002

           2 0
 s           4   1.0000000000000000     
   51.049363095579913      -0.16312063210127389     
   8.7911227406887544      -0.19911024581000730     
  0.70640422258929825       0.31882047753655751     
  0.26922813413411617       0.12706504184240380     
 p           4   1.0000000000000000     
   5.8263656140800002       0.73716451545209605     
   1.5106896018720002       0.68216371614850257     
  0.53256483288000001       0.35783053929253711     
  0.21202323690600003        5.3983030275847881E-002

           3 0
 s           4   1.0000000000000000     
   51.049363095579913      -0.16312063210127389     
   8.7911227406887544      -0.19911024581000730     
  0.70640422258929825       0.31882047753655751     
  0.26922813413411617       0.12706504184240380     
 p           4   1.0000000000000000     
   5.8263656140800002       0.73716451545209605     
   1.5106896018720002       0.68216371614850257     
  0.53256483288000001       0.35783053929253711     
  0.21202323690600003        5.3983030275847881E-002

           4 0
 s           4   1.0000000000000000     
   51.049363095579913      -0.16312063210127389     
   8.7911227406887544      -0.19911024581000730     
  0.70640422258929825       0.31882047753655751     
  0.26922813413411617       0.12706504184240380     
 p           4   1.0000000000000000     
   5.8263656140800002       0.73716451545209605     
   1.5106896018720002       0.68216371614850257     
  0.53256483288000001       0.35783053929253711     
  0.21202323690600003        5.3983030275847881E-002

           5 0
 s           4   1.0000000000000000     
   51.049363095579913      -0.16312063210127389     
   8.7911227406887544      -0.19911024581000730     
  0.70640422258929825       0.31882047753655751     
  0.26922813413411617       0.12706504184240380     
 p           4   1.0000000000000000     
   5.8263656140800002       0.73716451545209605     
   1.5106896018720002       0.68216371614850257     
  0.53256483288000001       0.35783053929253711     
  0.21202323690600003        5.3983030275847881E-002

           6 0
 s           4   1.0000000000000000     
   51.049363095579913      -0.16312063210127389     
   8.7911227406887544      -0.19911024581000730     
  0.70640422258929825       0.31882047753655751     
  0.26922813413411617       0.12706504184240380     
 p           4   1.0000000000000000     
   5.8263656140800002       0.73716451545209605     
   1.5106896018720002       0.68216371614850257     
  0.53256483288000001       0.35783053929253711     
  0.21202323690600003        5.3983030275847881E-002

           7 0
 s           3   1.0000000000000000     
   3.3702276975336001       0.27359110588908298     
  0.61389118221497996       0.26460540653860526     
  0.16614291148415999        8.2465947534082318E-002

           8 0
 s           3   1.0000000000000000     
   3.3702276975336001       0.27359110588908298     
  0.61389118221497996       0.26460540653860526     
  0.16614291148415999        8.2465947534082318E-002

           9 0
 s           3   1.0000000000000000     
   3.3702276975336001       0.27359110588908298     
  0.61389118221497996       0.26460540653860526     
  0.16614291148415999        8.2465947534082318E-002

          10 0
 s           3   1.0000000000000000     
   3.3702276975336001       0.27359110588908298     
  0.61389118221497996       0.26460540653860526     
  0.16614291148415999        8.2465947534082318E-002

          11 0
 s           3   1.0000000000000000     
   3.3702276975336001       0.27359110588908298     
  0.61389118221497996       0.26460540653860526     
  0.16614291148415999        8.2465947534082318E-002

[MO]
Sym=     1a
Ene=  -0.66043135034198497     
Spin= Alpha
Occup=     2.00000000
           1  0.25293313366638753     
           2  0.13785846099066743     
           3   9.9120894200749036E-006
           4  -3.2533479147704944E-006
           5  0.28422196545356443     
           6 -0.10727820580612346     
           7  -2.9898604322094100E-005
           8   2.3385407704396745E-006
           9  0.26849915188172013     
          10  -4.5039931278561159E-002
          11  -9.8631359968723853E-002
          12  -1.5938831680881009E-005
          13  0.26850872608975695     
          14  -4.5069809727775773E-002
          15   9.8625225877552208E-002
          16  -6.0353240861053622E-007
          17  0.26136392798071378     
          18   5.9358745772165572E-002
          19  -9.9080932540602171E-002
          20   1.6576344183743940E-005
          21  0.26140011310825079     
          22   5.9311558020711967E-002
          23   9.9111582770815040E-002
          24  -1.1773196706465264E-006
          25   4.8507244357997421E-002
          26   4.3398003121821037E-002
          27   4.3397670501542307E-002
          28   3.5180523309143688E-002
          29   3.5191857823403873E-002
Sym=     2a
Ene=  -0.62928380642094839     
Spin= Alpha
Occup=     2.00000000
           1 -0.40946751830937800     
           2 -0.11337240714182530     
           3   4.2470256025838590E-005
           4   7.8515127015641514E-006
           5  0.37637750189500341     
           6  -2.6611687785913166E-002
           7  -2.3824469284325745E-005
           8   3.9520200782628790E-006
           9  0.18513171125133601     
          10  0.11463066347175972     
          11  -7.9459724671066545E-002
          12  -6.8372731581636434E-006
          13  0.18515567976412708     
          14  0.11463471513647697     
          15   7.9518097260705023E-002
          16   2.3026325201911419E-007
          17 -0.19712742977762185     
          18  0.11297234028342640     
          19  0.10967431055393760     
          20  -8.0721409917849839E-006
          21 -0.19726399045225571     
          22  0.11305518845830914     
          23 -0.10965688297544322     
          24   2.3336160622954303E-006
          25  0.11658837067366060     
          26   5.6453451224881122E-002
          27   5.6461641891471896E-002
          28  -4.4896011494607473E-002
          29  -4.4932394020541992E-002
Sym=     3a
Ene=  -0.62737888141529641     
Spin= Alpha
Occup=     2.00000000
           1   9.5551378928848454E-006
           2  -2.3463227282407974E-005
           3  0.17733495634803106     
           4  -8.9579491375072714E-007
           5  -5.3765629683582922E-005
           6  -3.3181450498624109E-005
           7  0.17153511707892666     
           8   3.3128161437229334E-006
           9  0.33085053924493762     
          10  -8.2010039193200684E-002
          11   1.2621304626680492E-002
          12  -1.8463164198359698E-005
          13 -0.33082525305203675     
          14   8.1945758307267358E-002
          15   1.2614459954042111E-002
          16   2.6658103310594018E-006
          17  0.33207947967028073     
          18   7.7112619860043793E-002
          19   1.8947465294602655E-002
          20   2.0966075993751380E-005
          21 -0.33200313838585493     
          22  -7.7087673674962276E-002
          23   1.8941024408771649E-002
          24   6.1886151933562460E-007
          25  -1.8503581125173162E-005
          26  0.10048733456545568     
          27 -0.10047406616990583     
          28   9.8157201842962463E-002
          29  -9.8155501526779515E-002
Sym=     4a
Ene=  -0.58876620415878211     
Spin= Alpha
Occup=     2.00000000
           1  -4.2064738383125783E-005
           2   3.6592638701234321E-005
           3 -0.31494761708492180     
           4   1.3061117123906992E-005
           5   6.5811981814696611E-005
           6  -3.6286128452339136E-005
           7  0.24768641444192849     
           8   1.1317912808939367E-005
           9  0.25298964738356733     
          10  0.13354715112421797     
          11   3.8291986350032134E-003
          12  -1.9164279611020388E-006
          13 -0.25296219557160338     
          14 -0.13347429239191011     
          15   3.8064626381304361E-003
          16   7.5540958141119672E-006
          17 -0.25475553261737499     
          18  0.17008295549989061     
          19   1.9586930867837537E-002
          20  -2.4268176899863139E-006
          21  0.25467545766201388     
          22 -0.17007489186711749     
          23   1.9481403511907688E-002
          24   5.4400014648227831E-006
          25   3.1969681454504308E-005
          26  0.13340263563886562     
          27 -0.13338418724086221     
          28 -0.12919506308619566     
          29  0.12916800825290625     
Sym=     5a
Ene=  -0.58448449843190731     
Spin= Alpha
Occup=     2.00000000
           1 -0.31574235379048760     
           2  -9.6070891776258126E-003
           3  -2.9511724053726646E-005
           4   9.5048454241026719E-006
           5 -0.29273019901530539     
           6  -9.8237370234705607E-002
           7  -3.1558036791685650E-005
           8  -9.8541884636444576E-007
           9  0.16908836594388993     
          10 -0.17698716852286622     
          11  0.15174869304886737     
          12  -1.1054534427478953E-005
          13  0.16912496331108690     
          14 -0.17697149131558093     
          15 -0.15181423414027378     
          16  -2.0563538233335525E-006
          17  0.15211004920668503     
          18  0.16902611057703043     
          19  0.17949314160116564     
          20   1.3047014776815538E-005
          21  0.15217821060035819     
          22  0.16909841790144517     
          23 -0.17947081385236244     
          24   2.3928614512340517E-006
          25 -0.16912729603145926     
          26   9.2654717995715716E-002
          27   9.2653823533828547E-002
          28   9.6903705237224969E-002
          29   9.6973835914004547E-002
Sym=     6a
Ene=  -0.54025064191703720     
Spin= Alpha
Occup=     2.00000000
           1 -0.14432765185989244     
           2  0.12127550401734005     
           3   8.4981882285103678E-005
           4   1.8099073527859376E-005
           5  -9.9368212981754397E-002
           6 -0.30009537737699887     
           7   6.7507834164419604E-006
           8   2.3923078766395456E-005
           9  -1.9664423779246612E-002
          10 -0.11812797633003444     
          11 -0.19032851177781906     
          12   5.0765606919944502E-006
          13  -1.9677881710330272E-002
          14 -0.11832577419727129     
          15  0.19023655146698829     
          16   2.0940972500018614E-005
          17 -0.10883892987297336     
          18  0.16898700500920241     
          19 -0.15908565688833817     
          20   1.8443326199874427E-005
          21 -0.10878953472255332     
          22  0.16903415223350668     
          23  0.15908267869433163     
          24   1.3990986856066198E-005
          25 -0.26058909270776820     
          26 -0.16921687470090652     
          27 -0.16923644224200135     
          28 -0.20071391073150638     
          29 -0.20069115296189302     
Sym=     7a
Ene=  -0.51550249957828409     
Spin= Alpha
Occup=     2.00000000
           1   6.1794885661186491E-005
           2   1.0150652559522803E-004
           3 -0.35540251872001771     
           4   4.2345343109612305E-005
           5  -1.1966274135397420E-004
           6   8.3769649669046513E-006
           7 -0.32564742450040651     
           8  -3.0004203888372185E-005
           9  -1.6170585258624987E-002
          10 -0.29596106841553482     
          11  0.13553822263210941     
          12  -2.2914628183449246E-005
          13   1.6327224237978867E-002
          14  0.29598298101984477     
          15  0.13547714105785025     
          16  -7.5999988043713151E-006
          17   3.2094137310039350E-002
          18  0.26699224750310435     
          19  0.18411250932234738     
          20   2.1382233248571499E-005
          21  -3.2304836046300987E-002
          22 -0.26692233861520520     
          23  0.18424619222774083     
          24   1.4572654565436249E-005
          25  -1.0532202514938850E-004
          26  -2.8269781826748969E-002
          27   2.8495280995266933E-002
          28   3.1337520516567116E-002
          29  -3.1703329349357247E-002
Sym=     8a
Ene=  -0.50674090894127033     
Spin= Alpha
Occup=     2.00000000
           1  0.22511833266649772     
           2   4.7295800757501172E-002
           3   2.1153556858144283E-004
           4   1.1545060632900130E-004
           5 -0.18642889574724983     
           6   3.3805880139529416E-003
           7   1.7241578441430414E-004
           8   7.6120016360679585E-005
           9  0.16237056388451687     
          10  0.12286387199276420     
          11  0.22920095061462481     
          12   1.0722871501695555E-004
          13  0.16237190862871045     
          14  0.12264550997949977     
          15 -0.22936505843697377     
          16   4.7724805805152482E-005
          17 -0.16031390451040431     
          18   5.4565963870586390E-002
          19 -0.19577425562968515     
          20   1.1749220370347487E-004
          21 -0.16025956627271135     
          22   5.4737982845240805E-002
          23  0.19559845833547149     
          24   7.5095701953309008E-005
          25  -9.3855394327962929E-002
          26  0.29907358054549904     
          27  0.29910613713490397     
          28 -0.23854353266138464     
          29 -0.23848512962388166     
Sym=     9a
Ene=  -0.50249354418618664     
Spin= Alpha
Occup=     2.00000000
           1  -1.2069666151529540E-005
           2  -4.3734968348189149E-005
           3   2.9245048047719353E-005
           4  0.45544354358203759     
           5   5.6717228075944272E-005
           6  -4.5914494104885916E-006
           7  -2.3931398924222040E-005
           8  0.27709127739680911     
           9  -1.6785349961037809E-005
          10  -1.9024187019563660E-005
          11  -5.0829157101150113E-005
          12  0.28920093741124248     
          13  -2.1285815934231015E-005
          14  -2.4161590248649559E-005
          15   7.3862459679306560E-005
          16  0.28920995839631414     
          17   3.0084500754557443E-006
          18  -7.7297062253924592E-005
          19   9.1672273350571845E-005
          20  0.36035182789191783     
          21   4.4301089146072917E-005
          22  -1.5694918010694354E-005
          23  -6.2238531674641226E-005
          24  0.36040129577954383     
          25   6.1047030655309276E-006
          26  -5.0647188271160379E-005
          27  -9.5447603162417740E-005
          28   9.3842933259841423E-005
          29   7.3115486354537949E-005
Sym=    10a
Ene=  -0.48964634221496284     
Spin= Alpha
Occup=     2.00000000
           1  -3.2972297370264123E-005
           2  -7.1275888890750979E-006
           3   7.5544661365931701E-002
           4   4.5967517978083855E-005
           5   1.3120311227080642E-005
           6   4.4182600390734773E-005
           7  0.11513487230734798     
           8   8.5707893928994810E-006
           9   5.8668981219049017E-002
          10 -0.18661860334871697     
          11 -0.27857665032793649     
          12  -7.6699050552833718E-006
          13  -5.8701976146294590E-002
          14  0.18663961924552361     
          15 -0.27847601691691437     
          16  -2.1008755726364953E-006
          17   6.7125411452810035E-002
          18  0.20148971812322380     
          19 -0.23037284025838922     
          20   6.1055224376973236E-005
          21  -6.7091529969391078E-002
          22 -0.20135799888591377     
          23 -0.23042942810721206     
          24   2.2404900304140325E-005
          25   6.8323328604136363E-005
          26 -0.26761461293101241     
          27  0.26753548256141463     
          28 -0.22678746136242622     
          29  0.22678002276083223     
Sym=    11a
Ene=  -0.47025001268673011     
Spin= Alpha
Occup=     2.00000000
           1  0.19129423620480857     
           2 -0.30055899930395696     
           3  -5.9036120960968545E-005
           4  -1.2289485527135319E-004
           5   2.9096352527357497E-002
           6 -0.43785213075420676     
           7  -5.4508271871171321E-005
           8   9.2543445726825469E-005
           9   8.4176319056217808E-002
          10  0.19285541710573792     
          11  -8.8364393872279512E-002
          12   4.0649623923722600E-005
          13   8.4148156869782775E-002
          14  0.19287162650496356     
          15   8.8339323829884339E-002
          16   1.0916142256313491E-005
          17  -8.2291200931418396E-002
          18 -0.20725630141939094     
          19  0.10464872717699930     
          20  -7.8278460280389837E-005
          21  -8.2345575829027240E-002
          22 -0.20730167261391622     
          23 -0.10477205639471027     
          24  -6.7649251941202441E-005
          25 -0.42069876779711490     
          26   6.7497506088472159E-002
          27   6.7586363408687178E-002
          28  0.13921127108200151     
          29  0.13923154666431739     
Sym=    12a
Ene=  -0.44003988487656737     
Spin= Alpha
Occup=     2.00000000
           1  -8.6343328051389882E-005
           2   1.2332282910852411E-004
           3 -0.30310174193639994     
           4   1.3706655106108316E-004
           5   5.2891199746225240E-006
           6  -6.0871588858947159E-005
           7  0.31995094774802080     
           8  -7.3799580486864376E-005
           9  -1.2015712713026674E-002
          10   5.8368830742249987E-002
          11 -0.27384613013909798     
          12  -1.2998296561045041E-004
          13   1.2027566413940392E-002
          14  -5.8276369315967524E-002
          15 -0.27386703860231204     
          16  -5.7248506443237683E-006
          17  -2.8279947189519508E-003
          18  -3.8319440044818180E-002
          19  0.28506497173528994     
          20  -4.7858773447267660E-005
          21   2.8620705938723449E-003
          22   3.8222659087610245E-002
          23  0.28506296633300376     
          24   1.0782712378051373E-004
          25   9.4613604603645442E-006
          26 -0.25813760068420000     
          27  0.25814791474543602     
          28  0.29671183121136374     
          29 -0.29669232589618644     
Sym=    13a
Ene=  -0.43583880777328587     
Spin= Alpha
Occup=     2.00000000
           1  -9.7491084085173942E-005
           2   1.1044834973149975E-004
           3  -9.9922439829299049E-005
           4 -0.53139072403829424     
           5  -9.6398643607451037E-006
           6   1.0550821598606172E-004
           7   2.4797441768049686E-005
           8  0.55371456882888148     
           9   1.1970013850396079E-005
          10  -4.2699337327255449E-005
          11  -5.3026439245335169E-005
          12  0.32038089533723835     
          13  -1.1813367625424995E-005
          14   2.6176135966975671E-006
          15  -8.5156600438202287E-005
          16  0.32030607345241424     
          17   5.1506664046714817E-005
          18   3.9375617573897567E-005
          19   2.4313037635878483E-005
          20 -0.17860063927216380     
          21   2.0982058848583701E-005
          22   7.4495469581536940E-006
          23   7.8639451003586437E-005
          24 -0.17882326316605196     
          25   6.1347646965282624E-005
          26  -6.6451490503356957E-005
          27   4.9826729098910905E-005
          28   4.1081384339762004E-005
          29  -6.6633029770654174E-005
Sym=    14a
Ene=  -0.41984105607095706     
Spin= Alpha
Occup=     2.00000000
           1  -1.5103032203222366E-005
           2  -5.8504622256207631E-006
           3  -4.5059556439407717E-005
           4   5.4608392943937076E-005
           5   1.1064141972653390E-005
           6   8.1821306466158221E-006
           7   4.1839729216953061E-005
           8  -1.3061104937986932E-004
           9   3.7730915525052606E-005
          10  -3.9553807451088602E-005
          11  -6.2249276391151346E-005
          12  0.46310121585382596     
          13  -2.3755829466200954E-005
          14  -3.4022877528389493E-005
          15  -8.6505091746713609E-006
          16 -0.46314435144867921     
          17  -4.7096134445919510E-005
          18  -3.8432613003799686E-005
          19   7.3608742097270018E-005
          20  0.46469568773915643     
          21   1.4635638338302442E-005
          22   1.0898243577132085E-005
          23   3.9854994191357246E-005
          24 -0.46455026388909393     
          25   2.0388763339891664E-005
          26  -6.1313100743260726E-005
          27   2.2738825844908838E-005
          28   6.3319375348594093E-005
          29  -3.9788246549793750E-005
Sym=    15a
Ene=  -0.37218309529136423     
Spin= Alpha
Occup=     2.00000000
           1 -0.46591003797353969     
           2  0.74201096023197843     
           3   1.5817498628544784E-004
           4   7.4682810982575840E-005
           5   1.2474994096335909E-002
           6  -8.3177705569672522E-002
           7  -4.5119385561495321E-005
           8  -3.6286346467742725E-005
           9  -8.6126807844095182E-002
          10  0.22678524294351229     
          11  -2.4141110441212458E-003
          12   1.2376358274243943E-005
          13  -8.6174719088673621E-002
          14  0.22685128262166385     
          15   2.5258643170619527E-003
          16  -6.1636983572688577E-005
          17   5.4839207395106969E-002
          18 -0.17710584225276538     
          19  -6.6995193666164132E-002
          20   1.7977794140585069E-006
          21   5.4838033461955114E-002
          22 -0.17714001896734105     
          23   6.6860549603218661E-002
          24   3.4029450477273027E-005
          25 -0.13909578948908993     
          26  0.10607540179948234     
          27  0.10604560335448285     
          28  0.13677241718026459     
          29  0.13684677904729822     
Sym=    16a
Ene=  -0.25672564266926035     
Spin= Alpha
Occup=     0.00000000
           1   3.3730637768930356E-005
           2  -4.5079260254378537E-006
           3   3.1565217587565865E-005
           4  0.62250874326516958     
           5   4.3547437688631930E-006
           6   5.5474966020836597E-005
           7  -3.4305633731907173E-005
           8  0.63574462272434162     
           9  -4.3592441696168300E-005
          10   3.7230323675882023E-005
          11   1.2978442644848299E-005
          12 -0.27385382230520411     
          13  -7.0734675803967136E-006
          14  -8.2422344574926102E-006
          15   1.8837182758713653E-005
          16 -0.27414223525250558     
          17   5.7292741985397799E-005
          18   6.2728140579211656E-005
          19  -6.6780620771168338E-006
          20 -0.38105712660884067     
          21  -5.9502133122869138E-007
          22   1.7584400857730727E-005
          23  -1.2588997612200418E-005
          24 -0.38097432233686124     
          25  -1.9627481686442144E-005
          26   1.1027891819473865E-005
          27  -1.1853969593508311E-005
          28  -2.5223808531311712E-005
          29   9.3748616992440301E-006
Sym=    17a
Ene=  -0.23866782181243301     
Spin= Alpha
Occup=     0.00000000
           1   1.7656652393009966E-006
           2   4.8781107414101308E-005
           3   1.3265928463237058E-005
           4   1.6763736657079156E-004
           5   1.9093069653966038E-005
           6  -9.4355213154505945E-006
           7   2.3666796031480668E-005
           8   6.6185156656162764E-005
           9  -5.2810972290733620E-005
          10   3.5480798200226549E-005
          11   2.2996211918722731E-005
          12 -0.56104612287115696     
          13   2.6421184746988537E-005
          14   2.7583339307325482E-005
          15  -2.5693790089597414E-005
          16  0.56089989021719444     
          17  -6.0679147125388647E-005
          18  -2.7292922158619409E-005
          19   3.3989239614248042E-005
          20  0.56261777764351451     
          21   2.4711008548406271E-006
          22  -9.2657073701124058E-006
          23   6.0081429115093841E-006
          24 -0.56268567908081624     
          25  -2.5694026359125791E-005
          26   7.0536130983623060E-006
          27  -1.4445898739565194E-005
          28   1.9032580516282136E-005
          29   2.8719859851466232E-006
Sym=    18a
Ene=  -0.11885842448933542     
Spin= Alpha
Occup=     0.00000000
           1   3.8056244903162950E-006
           2   2.2842384166108544E-006
           3  -1.0905180403517948E-005
           4  0.43393099335200008     
           5  -3.6704738850696804E-005
           6  -4.6875276084668549E-005
           7   6.5864970027889835E-006
           8 -0.53935162877172715     
           9   4.8385473439174995E-005
          10  -1.7607713623509009E-005
          11  -2.7935144082501754E-005
          12  0.53746967598852902     
          13   3.1219786479745222E-005
          14   1.3097147502035060E-005
          15  -3.5839464163163702E-005
          16  0.53747664095200109     
          17   3.2406981987893657E-005
          18   8.9692430235273952E-006
          19  -2.6625287247105564E-005
          20 -0.48329430182467736     
          21  -2.1257364818744878E-005
          22  -7.8479146874113635E-006
          23  -6.2467677646905271E-006
          24 -0.48330629557180182     
          25   4.6786281650522622E-005
          26  -3.4498254481788290E-006
          27  -2.7271813865569651E-005
          28   5.9485327263491353E-006
          29   4.8661258338050090E-006
Sym=    19a
Ene=   0.10867891700876997     
Spin= Alpha
Occup=     0.00000000
           1 -0.31782847337230546     
           2 -0.29245831279030488     
           3  -2.3441248657364650E-004
           4   1.7510856719862739E-005
           5 -0.15008857984259413     
           6 -0.41663862637218790     
           7  -8.0660321856819615E-005
           8   4.1958363426487845E-005
           9 -0.50376724159370290     
          10 -0.26630369832553524     
          11 -0.28101970014623689     
          12  -1.1601152480015787E-005
          13 -0.50375360884044806     
          14 -0.26636751304322992     
          15  0.28093639477842480     
          16   4.6543245488717826E-005
          17   8.6458937809039307E-002
          18  -7.5092281642366240E-002
          19 -0.19926115742827766     
          20   1.7615935031627825E-005
          21   8.6407376853224555E-002
          22  -7.5092557934363965E-002
          23  0.19896295303405001     
          24  -1.7926885699284914E-005
          25  0.47330369604538025     
          26  0.66584166176578030     
          27  0.66578317961120381     
          28   3.9851353979807200E-002
          29   3.9715780021940525E-002
Sym=    20a
Ene=   0.11146034307044725     
Spin= Alpha
Occup=     0.00000000
           1 -0.26410486812035744     
           2 -0.21791180932920984     
           3  -2.2764104249241142E-004
           4   1.4818688309066635E-005
           5  0.58534681327097660     
           6  0.21574471953341939     
           7   2.5519149773170523E-004
           8  -5.4904601205169221E-005
           9 -0.26047367590301646     
          10   5.1058371837799363E-002
          11   8.5350967546156523E-002
          12   5.1130300444893743E-005
          13 -0.26007422463123758     
          14   5.1004465985373407E-002
          15  -8.5208593839890073E-002
          16   2.6179965350021723E-005
          17  0.63073548973348315     
          18 -0.13498374705740104     
          19  0.13953081406779513     
          20   3.1574599102357364E-005
          21  0.63017117809608492     
          22 -0.13482171312673674     
          23 -0.13953819318207558     
          24  -1.2582008996502635E-005
          25 -0.56124142714941760     
          26   8.9655135382288198E-002
          27   8.9588052105590441E-002
          28 -0.57572492945916098     
          29 -0.57532869008135801     
Sym=    21a
Ene=   0.14042508366558287     
Spin= Alpha
Occup=     0.00000000
           1  -1.0446039217947723E-003
           2  -4.8327922775921668E-004
           3 -0.46352652442605025     
           4   5.0041889468813444E-006
           5  -1.4373892446171716E-003
           6  -1.1757088912286193E-004
           7  -9.4473029465251032E-002
           8   2.4463943717348066E-006
           9 -0.44655528964683228     
          10  -4.6799538121753059E-003
          11 -0.44067969107330257     
          12   6.8579091266779545E-006
          13  0.44862438973148200     
          14   5.4842710540796468E-003
          15 -0.44047676651817741     