14
step=0 target=0.00deg measured=0.00deg E=-8572.3751kcal/mol converged=True
C       -1.94328801     -0.15228023     -0.00201716
C       -0.56271955      0.51566222      0.00505286
C        0.26334444      0.14201351     -1.22270130
C        1.62232052      0.82751908     -1.22966655
H       -2.06484657     -0.76807236     -0.88997927
H       -2.08107130     -0.79039911      0.86694279
H       -2.73885822      0.58852818     -0.00449505
H       -0.67372456      1.60039140      0.03697056
H       -0.01097910      0.22582487      0.90059044
H        0.40247420     -0.94033383     -1.24413725
H       -0.28781713      0.42363330     -2.12175912
H        1.50078568      1.90850369     -1.22752476
H        2.19027036      0.54515235     -2.11372389
H        2.19298928      0.54719581     -0.34711171
14
step=1 target=15.00deg measured=15.00deg E=-8572.7641kcal/mol converged=True
C       -1.94325369     -0.15249575     -0.00195810
C       -0.56307693      0.51579224      0.00525875
C        0.11443039      0.45037449     -1.36134861
C        1.47280690      1.13845667     -1.36074991
H       -2.06469420     -0.76839920     -0.88998249
H       -2.08110891     -0.78984320      0.86732320
H       -2.73883478      0.58861140     -0.00478272
H       -0.65642605      1.56173210      0.30162212
H        0.08327845      0.03251889      0.74041107
H        0.23773536     -0.59562372     -1.64974015
H       -0.53106841      0.92575440     -2.10220546
H        1.36551213      2.18734979     -1.09335606
H        1.93370982      1.07794730     -2.34425304
H        2.13612106      0.66841645     -0.63804702
14
step=2 target=30.00deg measured=30.00deg E=-8573.7175kcal/mol converged=True
C       -1.93950900     -0.15413857     -0.00139636
C       -0.56634554      0.51632289      0.00589501
C       -0.04984835      0.78075495     -1.40771313
C        1.31078292      1.46890294     -1.39632470
H       -2.05746706     -0.77130430     -0.88998117
H       -2.07725759     -0.77915046      0.87662300
H       -2.73213589      0.59214580     -0.01271311
H       -0.61681005      1.45932184      0.55500789
H        0.15171836     -0.12653937      0.52314756
H        0.03212443     -0.16814933     -1.94468035
H       -0.76847565      1.40705477     -1.94374228
H        1.25187585      2.42737765     -0.88438394
H        1.65943079      1.64578064     -2.41131194
H        2.04936252      0.85358377     -0.88544489
14
step=3 target=45.00deg measured=45.00deg E=-8574.6244kcal/mol converged=True
C       -1.93886434     -0.15387580     -0.00156301
C       -0.56675028      0.51610175      0.00548172
C       -0.21050433      1.10970504     -1.35655297
C        1.15067200      1.79634237     -1.33991569
H       -2.05721582     -0.77113991     -0.88999070
H       -2.07688059     -0.77907129      0.87700933
H       -2.73174121      0.59238054     -0.01291709
H       -0.54287771      1.30459439      0.76144913
H        0.19741994     -0.21857587      0.27449688
H       -0.20223883      0.31332424     -2.10500654
H       -0.97766184      1.83246675     -1.64712415
H        1.16194187      2.60827580     -0.61560321
H        1.38365694      2.20936145     -2.31871045
H        1.93454768      1.08992801     -1.07313929
14
step=4 target=60.00deg measured=60.00deg E=-8574.9847kcal/mol converged=True
C       -1.93643348     -0.15204315     -0.00436081
C       -0.56786711      0.51535813      0.00368733
C       -0.35928742      1.41407156     -1.21237358
C        1.00160842      2.09919974     -1.19152919
H       -2.05491833     -0.76888419     -0.89230127
H       -2.06803235     -0.78000098      0.87501549
H       -2.72558752      0.59712575     -0.00868234
H       -0.45484647      1.10796795      0.91429889
H        0.20808664     -0.25255261      0.01345777
H       -0.45038046      0.81552142     -2.12064420
H       -1.14459356      2.17226341     -1.23865612
H        1.10447399      2.71890201     -0.30316961
H        1.12615356      2.73189354     -2.06758888
H        1.80000179      1.36064495     -1.18520856
14
step=5 target=75.00deg measured=75.00deg E=-8574.6124kcal/mol converged=True
C       -1.93919045     -0.14955567     -0.00876739
C       -0.56439987      0.51451747      0.00326578
C       -0.48775867      1.67488784     -0.98801710
C        0.87566309      2.35520991     -0.96137357
H       -2.06371829     -0.76675937     -0.89655194
H       -2.06155481     -0.79154319      0.86118772
H       -2.72801992      0.59952649      0.00759973
H       -0.35062745      0.89599693      1.00624227
H        0.20303529     -0.22561137     -0.23817046
H       -0.68995522      1.30124875     -1.99567244
H       -1.26139892      2.40783384     -0.74257987
H        1.08302399      2.75320145      0.03015800
H        0.90717222      3.17701250     -1.67292101
H        1.66191089      1.64777653     -1.21746650
14
step=6 target=90.00deg measured=90.00deg E=-8573.6874kcal/mol converged=True
C       -1.94003525     -0.15002073     -0.00903919
C       -0.56382325      0.51482177      0.00312980
C       -0.58640533      1.87480850     -0.69218646
C        0.77828418      2.55127126     -0.66117252
H       -2.06402998     -0.76652886     -0.89609746
H       -2.06175704     -0.79192523      0.86072576
H       -2.72790898      0.59904955      0.00802642
H       -0.23471747      0.65543288      1.03623886
H        0.16241104     -0.13641740     -0.48796565
H       -0.90568636      1.74335862     -1.72958856
H       -1.31926602      2.51817240     -0.19769512
H        1.10075029      2.71029089      0.36602596
H        0.73878923      3.51657986     -1.16042514
H        1.52253466      1.93515332     -1.16163845
14
step=7 target=105.00deg measured=105.00deg E=-8572.7672kcal/mol converged=True
C       -1.94317330     -0.15308589     -0.00938510
C       -0.56369701      0.51656691      0.00241770
C       -0.64571471      2.00007003     -0.34849058
C        0.71961781      2.67245737     -0.31484421
H       -2.07249384     -0.77095921     -0.89373069
H       -2.07006025     -0.79711676      0.85732711
H       -2.73295313      0.59287765      0.01018701
H       -0.11469164      0.42172842      0.99307332
H        0.10235168      0.01423447     -0.70026155
H       -1.08257286      2.10839831     -1.34357969
H       -1.31147478      2.49649237      0.36028188
H        1.15667146      2.59040962      0.67782688
H        0.63417453      3.72642933     -0.56839305
H        1.39388845      2.19984651     -1.02525750
14
step=8 target=120.00deg measured=120.00deg E=-8572.3522kcal/mol converged=True
C       -1.94317330     -0.15308589     -0.00938510
C       -0.56369701      0.51656691      0.00241770
C       -0.66802307      2.03956043      0.01828728
C        0.69990653      2.70657157      0.05342164
H       -2.07249384     -0.77095921     -0.89373069
H       -2.07006025     -0.79711676      0.85732711
H       -2.73295313      0.59287765      0.01018701
H       -0.00648909      0.20070943      0.88658517
H        0.01271364      0.20185219     -0.86845673
H       -1.21351117      2.36975424     -0.86839034
H       -1.24352420      2.34711450      0.89363805
H        1.24561441      2.40249929      0.94386341
H        0.59831019      3.78916925      0.06366367
H        1.28394836      2.42268507     -0.81892724
14
step=9 target=135.00deg measured=135.00deg E=-8572.7892kcal/mol converged=True
C       -1.94048403     -0.16340878     -0.00516354
C       -0.56441574      0.51482383      0.00601482
C       -0.65065863      1.99193664      0.38947912
C        0.72292233      2.65212451      0.42065503
H       -2.07028064     -0.78212163     -0.88925660
H       -2.08318598     -0.78319719      0.87624506
H       -2.73116081      0.58415977     -0.01659555
H        0.09445390     -0.00177472      0.70719899
H       -0.10339084      0.44560522     -0.98261188
H       -1.28173013      2.51530232     -0.33339253
H       -1.12047577      2.08139835      1.37326761
H        1.36772657      2.16271086      1.14752646
H        0.63793311      3.70170493      0.69224899
H        1.20125103      2.59082667     -0.55509128
14
step=10 target=150.00deg measured=150.00deg E=-8573.7336kcal/mol converged=True
C       -1.93741293     -0.16132014     -0.00411157
C       -0.56678072      0.51406714      0.00838839
C       -0.58817665      1.86011409      0.72884600
C        0.78683805      2.51669411      0.75697619
H       -2.06240462     -0.78027815     -0.88963472
H       -2.07956565     -0.77927016      0.87796651
H       -2.72729654      0.58820398     -0.02044637
H        0.16347478     -0.14144345      0.48522513
H       -0.23111039      0.68056566     -1.01768771
H       -1.29454696      2.52454575      0.22712071
H       -0.94169730      1.71542974      1.75162424
H        1.50470173      1.88083214      1.27083002
H        0.74435375      3.47368245      1.27273345
H        1.14711815      2.68866666     -0.25514891
14
step=11 target=165.00deg measured=165.00deg E=-8574.6279kcal/mol converged=True
C       -1.93638208     -0.15948924     -0.00394968
C       -0.56717869      0.51331533      0.00790812
C       -0.49183750      1.65575529      1.01990723
C        0.88580639      2.30885263      1.04159079
H       -2.05940229     -0.77837190     -0.89071075
H       -2.07753392     -0.77921498      0.87936303
H       -2.72589819      0.59009712     -0.01987329
H        0.20562458     -0.22528363      0.23439113
H       -0.35172260      0.91811585     -0.98479962
H       -1.24309684      2.40797489      0.76916569
H       -0.72592983      1.27155860      2.01595665
H        1.65089059      1.58270026      1.30900920
H        0.91421753      3.11889279      1.76709187
H        1.13045467      2.71694937      0.06303450
14
step=12 target=180.00deg measured=180.00deg E=-8574.9863kcal/mol converged=True
C       -1.93626926     -0.15294058     -0.00494000
C       -0.56744471      0.51418575      0.00779744
C       -0.36498298      1.39103473      1.24116738
C        1.01273188      2.04186013      1.25738511
H       -2.05119414     -0.76972546     -0.89345133
H       -2.06452082     -0.78183872      0.87289009
H       -2.72427050      0.59762872     -0.00678383
H        0.21253940     -0.25033039     -0.02327871
H       -0.46504536      1.12868089     -0.88912366
H       -1.13390726      2.16669500      1.26110571
H       -0.48712297      0.78299417      2.14043079
H        1.79373012      1.28440184      1.26000014
H        1.13423850      2.66094904      2.14317164
H        1.14981396      2.66901936      0.37924194
14
step=13 target=195.00deg measured=195.00deg E=-8574.6233kcal/mol converged=True
C       -1.94004543     -0.14862481     -0.00799026
C       -0.56648312      0.51825280      0.00576591
C       -0.21650688      1.08585507      1.37996283
C        1.16174497      1.73612813      1.39185778
H       -2.06160667     -0.76654753     -0.89489795
H       -2.06061072     -0.79335184      0.86184489
H       -2.73371269      0.59427165      0.01106556
H        0.19776364     -0.21178786     -0.27405588
H       -0.54032890      1.31897161     -0.73725576
H       -0.97072917      1.82256279      1.66738527
H       -0.24172225      0.28007402      2.11752507
H        1.92665693      1.00801591      1.12867408
H        1.38982025      2.13343098      2.37854468
H        1.20473549      2.55182560      0.67296400
14
step=14 target=210.00deg measured=210.00deg E=-8573.7132kcal/mol converged=True
C       -1.94110903     -0.14872190     -0.00829182
C       -0.56575336      0.51842960      0.00573670
C       -0.05672585      0.75623152      1.42574057
C        1.32082013      1.40714948      1.43346851
H       -2.06191180     -0.76632927     -0.89473126
H       -2.06028950     -0.79335547      0.86123200
H       -2.73385695      0.59391208      0.01147276
H        0.15295899     -0.11450354     -0.52031364
H       -0.61537358      1.46974178     -0.52830076
H       -0.76529219      1.39358944      1.96025570
H       -0.00716850     -0.19954210      1.95338946
H        2.04307687      0.77258389      0.92347142
H        1.66383788      1.56758322      2.45319626
H        1.29138411      2.36829696      0.92436261
14
step=15 target=225.00deg measured=225.00deg E=-8572.7924kcal/mol converged=True
C       -1.94548622     -0.14883756     -0.01062877
C       -0.56399680      0.51850287      0.00599746
C        0.10522286      0.42838826      1.37563917
C        1.48095095      1.08099816      1.37980988
H       -2.07212437     -0.76788624     -0.89445340
H       -2.06298190     -0.79534218      0.85634518
H       -2.74291536      0.58814626      0.01362516
H        0.08758802      0.03884551     -0.72755416
H       -0.65384711      1.56682168     -0.28254259
H       -0.53131502      0.91268634      2.11991495
H        0.20267586     -0.62279044      1.65558846
H        2.13340518      0.59431558      0.65825464
H        1.93881009      1.00515165      2.36296810
H        1.40460191      2.13323534      1.11569157
14
step=16 target=240.00deg measured=240.00deg E=-8572.3668kcal/mol converged=True
C       -1.94548622     -0.14883756     -0.01062877
C       -0.56399680      0.51850287      0.00599746
C        0.25459452      0.12272524      1.23284803
C        1.62879824      0.77854970      1.23465460
H       -2.07212437     -0.76788624     -0.89445340
H       -2.06298190     -0.79534218      0.85634518
H       -2.74291536      0.58814626      0.01362516
H       -0.00449087      0.23344806     -0.88755098
H       -0.67479613      1.60360226     -0.01815991
H       -0.28870182      0.41003813      2.13614861
H        0.37194744     -0.96303165      1.24718709
H        2.19044838      0.48388411      0.35095797
H        2.19390720      0.48323637      2.11523944
H        1.53421170      1.86198995      1.23348531
14
step=17 target=255.00deg measured=255.00deg E=-8572.7754kcal/mol converged=True
C       -1.94320110     -0.15635696     -0.00748054
C       -0.56422848      0.51602768      0.00362022
C        0.38550355     -0.14230983      1.00294226
C        1.75738238      0.51971686      1.00529296
H       -2.07143264     -0.77642998     -0.89124438
H       -2.07510060     -0.77855998      0.87406658
H       -2.73942370      0.58378784     -0.01632372
H       -0.12295044      0.47729350     -0.99412455
H       -0.66231313      1.57077018      0.27240706
H       -0.04622826     -0.07612174      2.00404583
H        0.49072073     -1.20206062      0.75551149
H        2.21658618      0.45123112      0.02167067
H        2.41444868      0.03829138      1.72556724
H        1.67306892      1.57178804      1.26972123
14
step=18 target=270.00deg measured=270.00deg E=-8573.7188kcal/mol converged=True
C       -1.94000477     -0.15586316     -0.00606744
C       -0.56571584      0.51313474      0.00339010
C        0.48474429     -0.34263419      0.70822147
C        1.85607799      0.32184030      0.70824939
H       -2.06361867     -0.77574804     -0.89054467
H       -2.07348352     -0.77435098      0.87727974
H       -2.73195969      0.59067495     -0.01979364
H       -0.24543980      0.71728451     -1.01955315
H       -0.63120621      1.47228262      0.52221917
H        0.16898566     -0.51885457      1.73915614
H        0.55147963     -1.31349218      0.21143093
H        2.20050016      0.49115024     -0.30996624
H        2.58543641     -0.30425839      1.21750768
H        1.81317345      1.28232884      1.21789249
14
step=19 target=285.00deg measured=285.00deg E=-8574.6193kcal/mol converged=True
C       -1.93912351     -0.15534267     -0.00591697
C       -0.56640560      0.51263978      0.00350760
C        0.54757647     -0.46742849      0.36623917
C        1.91795438      0.19954504      0.36585310
H       -2.06331598     -0.77579399     -0.89097454
H       -2.07327360     -0.77450703      0.87757390
H       -2.73155252      0.59107030     -0.01973145
H       -0.36146332      0.95427648     -0.97379611
H       -0.56110571      1.32440847      0.73547588
H        0.34894783     -0.88323288      1.35659946
H        0.54624322     -1.29487860     -0.34723597
H        2.14653674      0.60609988     -0.61719705
H        2.69292328     -0.51680403      0.62944691
H        1.94456888      1.01434507      1.08649843
14
step=20 target=300.00deg measured=300.00deg E=-8574.9877kcal/mol converged=True
C       -1.93748116     -0.15247414     -0.00552394
C       -0.56704687      0.51221256      0.00545824
C        0.56800602     -0.50924139      0.00128194
C        1.93697795      0.16072281      0.00077231
H       -2.05444806     -0.76970895     -0.89374444
H       -2.06536313     -0.78137075      0.87313806
H       -2.72373839      0.59921851     -0.00894966
H       -0.47237440      1.16204600     -0.86784943
H       -0.48128361      1.13807404      0.89688446
H        0.47822767     -1.14951032      0.88199311
H        0.47818623     -1.14718952     -0.88152436
H        2.05712115      0.78746848     -0.88057618
H        2.72918348     -0.58449731     -0.00010132
H        2.05725242      0.78687474      0.88238979
14
step=21 target=315.00deg measured=315.00deg E=-8574.6202kcal/mol converged=True
C       -1.94040740     -0.15003202     -0.00686275
C       -0.56449608      0.51278623      0.00720010
C        0.55101661     -0.46249968     -0.36135600
C        1.91827384      0.20944829     -0.36198739
H       -2.05942347     -0.76677297     -0.89543857
H       -2.06630033     -0.79375102      0.86132059
H       -2.73082052      0.59583793      0.00648660
H       -0.55427472      1.34226158     -0.70409147
H       -0.36965956      0.93065899      0.99686428
H        0.55079064     -1.29330793      0.34777528
H        0.35070424     -0.87508075     -1.35267759
H        1.93944525      1.02549296     -1.08157635
H        2.69509387     -0.50429337     -0.62670020
H        2.14201878      0.61529441      0.62206106
14
step=22 target=330.00deg measured=330.00deg E=-8573.6996kcal/mol converged=True
C       -1.94040740     -0.15003202     -0.00686275
C       -0.56449608      0.51278623      0.00720010
C        0.49168523     -0.33212381     -0.70131442
C        1.85744325      0.34285991     -0.69834560
H       -2.05942347     -0.76677297     -0.89543857
H       -2.06630033     -0.79375102      0.86132059
H       -2.73082052      0.59583793      0.00648660
H       -0.62536186      1.48523215     -0.48748546
H       -0.25489868      0.69154274      1.03880548
H        0.56222438     -1.30520539     -0.21014639
H        0.17651838     -0.50543476     -1.73267269
H        1.80637598      1.30435209     -1.20540607
H        2.59166059     -0.27725679     -1.20758970
H        2.19499956      0.51168502      0.32179069
14
step=23 target=345.00deg measured=345.00deg E=-8572.7864kcal/mol converged=True
C       -1.94539008     -0.14997003     -0.00520282
C       -0.56320383      0.51471569      0.00837378
C        0.39563314     -0.12674312     -0.99298917
C        1.76076223      0.54928718     -0.98471393
H       -2.06574263     -0.76626856     -0.89333018
H       -2.07421714     -0.80030955      0.85717248
H       -2.74103135      0.58922460      0.00995025
H       -0.65995224      1.57423919     -0.24076030
H       -0.12981467      0.45811392      1.00869063
H        0.51338873     -1.18601902     -0.75181761
H       -0.03483057     -0.05842472     -1.99499078
H        1.66502131      1.60132247     -1.24472708
H        2.42755141      0.07823258     -1.70312004
H        2.21530126      0.48180184      0.00135529
