14
step=0 target=0.00deg measured=0.37deg E=-26.9396kcal/mol converged=True
C       -1.93873006     -0.15188583     -0.00474025
C       -0.56110743      0.51912009      0.00933804
C        0.25767039      0.13551065     -1.23106164
C        1.61982640      0.82870796     -1.22535087
H       -2.07931763     -0.78233479     -0.88984058
H       -2.08302723     -0.79391736      0.87052022
H       -2.74540620      0.58764219     -0.00747066
H       -0.67179331      1.61848061      0.05800761
H       -0.00701907      0.23880927      0.92412444
H        0.39087525     -0.96238513     -1.26738801
H       -0.30108391      0.40490809     -2.14745317
H        1.51388140      1.91880316     -1.22333826
H        2.20486093      0.55580280     -2.11080069
H        2.20705739      0.55203762     -0.34290068
14
step=1 target=15.00deg measured=58.61deg E=-28.1717kcal/mol converged=True
C       -1.93419506     -0.15124540     -0.00674022
C       -0.51936143      0.42643606      0.03022661
C        0.07946956      0.49979326     -1.38148782
C        1.45774360      1.16077643     -1.35961307
H       -1.94860747     -1.15404477     -0.44775069
H       -2.35801767     -0.22913986      1.00002840
H       -2.60530167      0.47838635     -0.60104957
H       -0.53302793      1.43351930      0.48726988
H        0.12708838     -0.19205343      0.68090665
H        0.15402688     -0.51798657     -1.80943755
H       -0.59839089      1.06026140     -2.05223495
H        1.39478760      2.21389899     -1.06291402
H        1.93089138      1.12372149     -2.34700850
H        2.13092958      0.66048024     -0.65506271
14
step=2 target=30.00deg measured=59.83deg E=-28.1788kcal/mol converged=True
C       -1.93322348     -0.15234510     -0.00232683
C       -0.50182176      0.38090580      0.05275830
C        0.31214129     -0.08850760     -1.16079575
C        1.70553828      0.54068725     -1.15219809
H       -1.95532342     -1.24723869     -0.01287675
H       -2.50987445      0.18170043      0.86691749
H       -2.45691824      0.19655195     -0.89903782
H       -0.51091445      1.48623320      0.09357724
H       -0.01004348      0.04935348      0.98663658
H        0.39235580     -1.19143562     -1.15912754
H       -0.21689783      0.17402547     -2.09608184
H        1.65149379      1.63172461     -1.24332966
H        2.31533786      0.17000574     -1.98308533
H        2.24123656      0.31470889     -0.22343865
14
step=3 target=45.00deg measured=59.19deg E=-28.1875kcal/mol converged=True
C       -1.93023521     -0.16216691      0.00170765
C       -0.49946908      0.37269630      0.07056413
C        0.39781783     -0.33910077     -0.95108615
C        1.80884628      0.24881080     -0.95368257
H       -1.96717241     -1.23858031      0.20066063
H       -2.57272238      0.33154915      0.73778219
H       -2.37165882      0.00465459     -0.98652908
H       -0.49086140      1.46319044     -0.11359169
H       -0.09342756      0.23771855      1.09039271
H        0.43856254     -1.42051377     -0.72329957
H       -0.04494808     -0.25886135     -1.96159678
H        1.80305637      1.30022886     -1.26183562
H        2.46248533     -0.29454333     -1.64497740
H        2.26760236      0.19697269      0.03961469
14
step=4 target=60.00deg measured=60.00deg E=-28.1873kcal/mol converged=False
C       -1.93023521     -0.16216691      0.00170765
C       -0.49946908      0.37269630      0.07056413
C        0.39316394     -0.32487556     -0.96488165
C        1.80380563      0.26396641     -0.96666880
H       -1.96717241     -1.23858031      0.20066063
H       -2.57272238      0.33154915      0.73778219
H       -2.37165882      0.00465459     -0.98652908
H       -0.49243680      1.46554409     -0.09913910
H       -0.08828599      0.22446780      1.08648530
H        0.43569462     -1.40918893     -0.75167617
H       -0.05466365     -0.23152889     -1.97203040
H        1.79584835      1.31937762     -1.26080417
H        2.45433246     -0.26972561     -1.66834816
H        2.26752049      0.19925775      0.02356607
14
step=5 target=75.00deg measured=60.58deg E=-28.2050kcal/mol converged=True
C       -1.92800580     -0.16860374      0.00833660
C       -0.51427544      0.41184850      0.04223604
C        0.29925704     -0.04777725     -1.17513884
C        1.70433621      0.55381028     -1.15002003
H       -1.91502207     -1.26401024      0.02448359
H       -2.51169340      0.16919474      0.87152595
H       -2.46511555      0.14043322     -0.89544145
H       -0.55923830      1.51659857      0.06805754
H       -0.00261337      0.11037724      0.97531874
H        0.36032108     -1.15242279     -1.19454294
H       -0.22109166      0.24234313     -2.10702532
H        1.67228262      1.64898706     -1.14254766
H        2.28295329      0.24796552     -2.02844145
H        2.25990375      0.23432966     -0.26099354
14
step=6 target=90.00deg measured=61.76deg E=-28.1926kcal/mol converged=True
C       -1.92513030     -0.17644873      0.00656763
C       -0.54516878      0.48149305      0.04053716
C        0.05064012      0.57377596     -1.37106393
C        1.45515424      1.17676696     -1.33976483
H       -1.87006706     -1.20265296     -0.37274769
H       -2.37074929     -0.21810930      1.00645064
H       -2.61625594      0.37651266     -0.63945071
H       -0.61667434      1.49165751      0.48598514
H        0.13174311     -0.09169164      0.70065071
H        0.08316186     -0.43079588     -1.83334034
H       -0.60872729      1.18281770     -2.01713608
H        1.46006830      2.16374318     -0.86433003
H        1.85525670      1.29659701     -2.35293501
H        2.15251642      0.54010606     -0.78264185
14
step=7 target=105.00deg measured=62.63deg E=-28.1678kcal/mol converged=True
C       -1.92011848     -0.18096916      0.00344970
C       -0.58383902      0.55600541      0.08998705
C       -0.37827789      1.45964491     -1.13400346
C        1.01614856      2.08595647     -1.12541378
H       -1.94999784     -0.84610871     -0.86633320
H       -2.09458582     -0.79516474      0.89354059
H       -2.75921574      0.51841991     -0.08489953
H       -0.54109338      1.15877080      1.01653869
H        0.24425237     -0.17269024      0.16785047
H       -0.52693353      0.87842312     -2.06348351
H       -1.15028013      2.25154446     -1.15033289
H        1.18988207      2.66439241     -0.21163938
H        1.15201021      2.76435368     -1.97474976
H        1.79749560      1.32001526     -1.18534115
14
step=8 target=120.00deg measured=119.93deg E=-26.9042kcal/mol converged=True
C       -1.92305960     -0.18866713      0.00598503
C       -0.58775526      0.55916613      0.08647109
C       -0.79108906      2.07995730      0.02436577
C        0.54950098      2.81342553     -0.03187460
H       -1.95754286     -0.85433925     -0.86227384
H       -2.09746732     -0.80152347      0.89609306
H       -2.77432744      0.49547650     -0.08130381
H       -0.05551754      0.29252251      1.01860874
H        0.08021622      0.23786013     -0.73484937
H       -1.40014251      2.34349001     -0.86100122
H       -1.37020268      2.41699543      0.90447382
H        1.17889725      2.56762015      0.83036512
H        0.40667767      3.89897907     -0.03727921
H        1.10967422      2.54995587     -0.93571569
14
step=9 target=135.00deg measured=174.19deg E=-28.0991kcal/mol converged=True
C       -1.90824569     -0.19593582      0.07072636
C       -0.61180763      0.59889449     -0.08496153
C       -0.80139153      2.04975819      0.38166100
C        0.53717751      2.78556386      0.43382186
H       -1.81266847     -1.20125428     -0.35366042
H       -2.18386201     -0.30901950      1.12525593
H       -2.74285825      0.29882734     -0.43851279
H        0.20089480      0.11755231      0.49142963
H       -0.28222087      0.58405717     -1.14061207
H       -1.50001835      2.57378824     -0.29738390
H       -1.28115771      2.06717026      1.37896465
H        1.19986887      2.34694988      1.18846492
H        0.40206605      3.84221858      0.68853468
H        1.05843760      2.74301458     -0.52899471
14
step=10 target=150.00deg measured=178.72deg E=-28.1349kcal/mol converged=True
C       -1.90807392     -0.20192514      0.05257896
C       -0.62081841      0.60298536     -0.12587494
C       -0.90752845      2.11126756     -0.14680281
C        0.39601879      2.91107681     -0.14472738
H       -1.70673004     -1.27928573      0.04501868
H       -2.39883991      0.03431563      1.00335255
H       -2.62471588      0.00437162     -0.74994423
H        0.08860784      0.36525358      0.68922809
H       -0.11563912      0.30475467     -1.06372054
H       -1.51092254      2.36792302     -1.03757038
H       -1.52525109      2.39333100      0.72638067
H        0.94677138      2.77066675      0.79220982
H        0.20837655      3.98349631     -0.25782948
H        1.05599630      2.60439171     -0.96407144
14
step=11 target=165.00deg measured=179.85deg E=-28.1732kcal/mol converged=True
C       -1.90856982     -0.20254993      0.03673164
C       -0.61842712      0.59965309     -0.13383740
C       -0.92693088      2.06986540     -0.45151298
C        0.35682645      2.89892619     -0.49095157
H       -1.69786339     -1.25381769      0.26110565
H       -2.51733846      0.19395647      0.85752600
H       -2.51944283     -0.17694549     -0.87236927
H       -0.00366904      0.53116014      0.78394655
H       -0.00204561      0.16006705     -0.94061463
H       -1.45874802      2.14316154     -1.41870555
H       -1.62166586      2.48321006      0.30372157
H        0.85373460      2.90958219      0.48551138
H        0.15246636      3.93863447     -0.76703341
H        1.06844509      2.49790180     -1.22117900
14
step=12 target=180.00deg measured=180.00deg E=-28.1730kcal/mol converged=False
C       -1.90856982     -0.20254993      0.03673164
C       -0.61842712      0.59965309     -0.13383740
C       -0.92693522      2.07066113     -0.44780344
C        0.35701197      2.89943110     -0.48717370
H       -1.69786339     -1.25381769      0.26110565
H       -2.51733846      0.19395647      0.85752600
H       -2.51944283     -0.17694549     -0.87236927
H       -0.00241688      0.52893179      0.78293741
H       -0.00329570      0.16168767     -0.94244805
H       -1.46007171      2.14627153     -1.41409109
H       -1.62049932      2.48252325      0.30931489
H        0.85527726      2.90776219      0.48862005
H        0.15257746      3.93981282     -0.76065121
H        1.06749805      2.49982846     -1.21928094
14
step=13 target=195.00deg measured=180.59deg E=-28.2068kcal/mol converged=True
C       -1.91215539     -0.20542587      0.01435553
C       -0.61577936      0.60065247     -0.06911577
C       -0.90016384      2.10932850     -0.07292897
C        0.40118701      2.90844805     -0.14698218
H       -1.70801597     -1.28200634      0.02758224
H       -2.47401698      0.03536218      0.92374308
H       -2.56672251     -0.00603779     -0.84159282
H        0.04313615      0.34570468      0.78251186
H       -0.05369121      0.32225159     -0.98031480
H       -1.55094581      2.36830728     -0.92826407
H       -1.46737135      2.38718361      0.83466342
H        1.05632476      2.68830287      0.70353450
H        0.20643514      3.98612531     -0.14334921
H        0.95847782      2.67790378     -1.06206486
14
step=14 target=210.00deg measured=181.14deg E=-28.1760kcal/mol converged=True
C       -1.91524808     -0.19780679     -0.00161574
C       -0.59201319      0.56709405      0.01189003
C       -0.77065081      1.97140831      0.60668223
C        0.52912935      2.77059483      0.51027590
H       -1.78503530     -1.20676912     -0.40704257
H       -2.33134631     -0.29851939      1.00623956
H       -2.66533186      0.30881199     -0.61769254
H        0.16263705      0.00623061      0.59438896
H       -0.18645802      0.64106795     -1.01473151
H       -1.58269395      2.50650155      0.07954293
H       -1.09601594      1.89538265      1.66106721
H        1.35905744      2.24487429      0.99528620
H        0.43224414      3.74953107      0.99124351
H        0.81307191      2.94253830     -0.53390902
14
step=15 target=225.00deg measured=182.46deg E=-28.1750kcal/mol converged=True
C       -1.90914260     -0.20697430      0.00425308
C       -0.55863188      0.50834529      0.04352182
C       -0.42468110      1.35556976      1.31733801
C        0.87263610      2.16418327      1.30018910
H       -1.99690737     -0.84820075     -0.87977734
H       -2.05300294     -0.84044726      0.88632657
H       -2.73588217      0.51113089     -0.02556895
H        0.26457990     -0.22845528     -0.00705088
H       -0.44369865      1.14907461     -0.85098105
H       -1.29388441      2.03312449      1.41383124
H       -0.45051888      0.70142411      2.20896142
H        1.74619297      1.51250482      1.18746125
H        1.00445629      2.73114281      2.22819169
H        0.88526805      2.88147492      0.47197899
14
step=16 target=240.00deg measured=239.88deg E=-26.9195kcal/mol converged=True
C       -1.91482982     -0.20934977     -0.00251493
C       -0.56133965      0.50627804      0.05132837
C        0.22579920      0.13736126      1.31708764
C        1.52301938      0.94117186      1.40842403
H       -1.99974898     -0.84360265     -0.89108941
H       -2.07622400     -0.85372930      0.86781397
H       -2.74516630      0.50408438     -0.03003009
H        0.03812676      0.25719056     -0.84444764
H       -0.70724200      1.60184105      0.01134129
H       -0.39398294      0.32212584      2.21468230
H        0.44916645     -0.94567543      1.31824005
H        2.15299480      0.79227295      0.52452768
H        2.11050061      0.64632806      2.28481721
H        1.32253694      2.01546520      1.49234559
14
step=17 target=255.00deg measured=297.11deg E=-28.1409kcal/mol converged=True
C       -1.89528822     -0.23094716     -0.02552266
C       -0.62201939      0.59509016      0.16125880
C        0.37860900     -0.13494514      1.06847703
C        1.70314192      0.62408195      1.15828540
H       -1.68674735     -1.18087203     -0.52894352
H       -2.36493219     -0.46466662      0.93623431
H       -2.63419959      0.30738843     -0.62938883
H       -0.15846852      0.80737900     -0.82002086
H       -0.87346420      1.58084709      0.59615065
H       -0.05669632     -0.25912303      2.07815892
H        0.55763781     -1.15886577      0.68932691
H        2.23217991      0.62722847      0.19835089
H        2.37035568      0.16762885      1.89786681
H        1.55154160      1.66770556      1.45446676
14
step=18 target=270.00deg measured=299.68deg E=-28.1701kcal/mol converged=True
C       -1.89603611     -0.22566390     -0.02381780
C       -0.64605882      0.62757922      0.19014781
C        0.07504805      0.23274827      1.48669736
C        1.39684430      0.98800287      1.62567506
H       -1.64680558     -1.28957250     -0.09870121
H       -2.60438519     -0.10918619      0.80333804
H       -2.41648819      0.05574426     -0.94623987
H        0.03784630      0.51895114     -0.67226820
H       -0.91977738      1.69905916      0.22561376
H       -0.57531392      0.44045120      2.35709713
H        0.25772002     -0.85837251      1.50166249
H        2.08996944      0.73169958      0.81652135
H        1.89211422      0.75108388      2.57341051
H        1.24669056      2.07286565      1.59599453
14
step=19 target=285.00deg measured=298.12deg E=-28.1735kcal/mol converged=True
C       -1.90200975     -0.21930140     -0.01673517
C       -0.65622273      0.64265551      0.18996749
C       -0.11470885      0.47869307      1.61702309
C        1.19711147      1.23977896      1.80545103
H       -1.67618488     -1.28407037      0.10751485
H       -2.68961842      0.03722974      0.70015699
H       -2.31485942     -0.08530640     -1.02198277
H        0.12153468      0.36593063     -0.54636761
H       -0.89312751      1.70516867     -0.00619747
H       -0.86769517      0.83348509      2.34598979
H        0.03695206     -0.59446482      1.83924673
H        1.98521608      0.84555112      1.15416884
H        1.55150323      1.16178987      2.83931031
H        1.08265424      2.30535493      1.57673357
14
step=20 target=300.00deg measured=300.00deg E=-28.1739kcal/mol converged=False
C       -1.90200975     -0.21930140     -0.01673517
C       -0.65622273      0.64265551      0.18996749
C       -0.08763710      0.44319448      1.60189324
C        1.22425465      1.20511452      1.78641223
H       -1.67618488     -1.28407037      0.10751485
H       -2.68961842      0.03722974      0.70015699
H       -2.31485942     -0.08530640     -1.02198277
H        0.10888830      0.38933114     -0.56772935
H       -0.90117556      1.70890543      0.02672533
H       -0.82844526      0.77487002      2.35385922
H        0.07261547     -0.63479112      1.79246710
H        2.00178158      0.83210834      1.11038618
H        1.59809507      1.10121518      2.81110199
H        1.10111028      2.27586858      1.58845897
14
step=21 target=315.00deg measured=300.15deg E=-28.2026kcal/mol converged=True
C       -1.90869199     -0.20918734     -0.01268167
C       -0.62623583      0.60316327      0.16481430
C        0.11499499      0.18580027      1.44227751
C        1.41655845      0.97256367      1.59591497
H       -1.69639010     -1.28149992     -0.08318024
H       -2.59736797     -0.06420082      0.82724445
H       -2.43753679      0.08334960     -0.92618236
H        0.03219725      0.46959745     -0.71407586
H       -0.86122538      1.68357016      0.20110864
H       -0.53171795      0.34682774      2.32479276
H        0.32570860     -0.89978071      1.41760051
H        2.08025361      0.81579288      0.73790170
H        1.96300564      0.66758793      2.49546818
H        1.22352575      2.04813972      1.67440830
14
step=22 target=330.00deg measured=301.89deg E=-28.1868kcal/mol converged=True
C       -1.91569623     -0.20240169      0.00112704
C       -0.59813568      0.56831302      0.09162588
C        0.43295361     -0.20112208      0.92943798
C        1.72296102      0.60529836      1.08300842
H       -1.76688160     -1.19688670     -0.43467155
H       -2.37062921     -0.33960793      0.98866241
H       -2.64476508      0.32537737     -0.62416831
H       -0.19586544      0.75089710     -0.92268225
H       -0.77141773      1.56768536      0.53291762
H        0.01122292     -0.43419511      1.92509505
H        0.64724803     -1.17774867      0.45706981
H        2.14347386      0.88063007      0.10935924
H        2.48635509      0.03418579      1.62256074
H        1.55079915      1.53293280      1.64045520
14
step=23 target=345.00deg measured=299.81deg E=-28.1963kcal/mol converged=True
C       -1.91536826     -0.20063708     -0.01519505
C       -0.59828439      0.57482236      0.01691785
C        0.60240835     -0.38068663     -0.01653611
C        1.91890591      0.39012079      0.08238454
H       -2.00177620     -0.80752571     -0.92407272
H       -2.00156368     -0.87837075      0.84183754
H       -2.77472828      0.47766600      0.01301434
H       -0.54885369      1.27199948     -0.83995808
H       -0.55241471      1.20602273      0.92425317
H        0.52686374     -1.10910189      0.81257040
H        0.58224990     -0.97802671     -0.94711785
H        2.01178712      1.13180303     -0.71848860
H        2.77956194     -0.28323784      0.00603985
H        1.99906075      0.92129591      1.03724384
