14
step=0 target=0.00deg measured=0.00deg E=-8572.3752kcal/mol converged=True
C       -1.94049596     -0.14936526     -0.00636551
C       -0.56897692      0.51057945      0.00746412
C        0.56200563     -0.51424024      0.00643924
C        1.94420701      0.15018365     -0.00865185
H       -2.05367893     -0.76805884     -0.89390219
H       -2.06517090     -0.78315034      0.86880708
H       -2.72793635      0.60149955     -0.00554241
H       -0.46829769      1.15273745     -0.86939424
H       -0.47864499      1.14189862      0.89322070
H        0.46113103     -1.14885712      0.88820291
H        0.44969808     -1.16051203     -0.86517537
H        1.84710626      1.23322040     -0.01574745
H        2.50825359     -0.13493863     -0.89312069
H        2.52799025     -0.12587391      0.86556469
14
step=1 target=15.00deg measured=15.00deg E=-8572.7642kcal/mol converged=True
C       -1.94062653     -0.14961487     -0.00640252
C       -0.56876597      0.51103838      0.00710522
C        0.56236197     -0.51437005      0.00622781
C        1.94426875      0.15020803     -0.00843436
H       -2.05398783     -0.76809332     -0.89399994
H       -2.06544702     -0.78318086      0.86895111
H       -2.72781813      0.60118357     -0.00550784
H       -0.46830675      1.15319437     -0.86985578
H       -0.47874494      1.14219758      0.89368367
H        0.46111842     -1.14863407      0.88897265
H        0.44996708     -1.16097411     -0.86544669
H        1.86406388      1.20394494      0.24822494
H        2.40105489      0.08567041     -0.99300325
H        2.61766107     -0.31654002      0.70539386
14
step=2 target=30.00deg measured=30.00deg E=-8573.7175kcal/mol converged=True
C       -1.93790845     -0.15066621     -0.00721594
C       -0.56566858      0.51402611      0.00459331
C        0.56508237     -0.51377871      0.00430955
C        1.94216392      0.14856627     -0.00530682
H       -2.05730630     -0.76887493     -0.89478763
H       -2.06713219     -0.78305365      0.86942425
H       -2.72670266      0.59822335     -0.00516033
H       -0.46775194      1.15929384     -0.87293097
H       -0.47952254      1.14416351      0.89396167
H        0.46614966     -1.13879419      0.89649804
H        0.46099604     -1.16596696     -0.86581943
H        1.90521679      1.11177428      0.49992113
H        2.27672319      0.32612120     -1.02602713
H        2.68240948     -0.47480732      0.48864004
14
step=3 target=45.00deg measured=45.00deg E=-8574.6244kcal/mol converged=True
C       -1.93801157     -0.15059024     -0.00726371
C       -0.56582009      0.51386412      0.00469847
C        0.56532905     -0.51322673      0.00443422
C        1.94147080      0.14840226     -0.00521233
H       -2.05712215     -0.76888078     -0.89468539
H       -2.06676941     -0.78295268      0.86919971
H       -2.72666040      0.59836317     -0.00518213
H       -0.46775587      1.15910242     -0.87245605
H       -0.47933478      1.14403817      0.89344614
H        0.46655986     -1.13849333      0.89626439
H        0.46145871     -1.16585033     -0.86565937
H        1.97614525      0.96669140      0.71139472
H        2.16242266      0.56327101     -0.98742712
H        2.72350744     -0.56467949      0.24327940
14
step=4 target=60.00deg measured=60.00deg E=-8574.9847kcal/mol converged=True
C       -1.93794635     -0.14988195     -0.00731525
C       -0.56591258      0.51285624      0.00603017
C        0.56590036     -0.51134827      0.00547415
C        1.93759750      0.14956771     -0.00427546
H       -2.05520766     -0.76903099     -0.89427949
H       -2.06395056     -0.78274229      0.86821353
H       -2.72622719      0.59971945     -0.00540534
H       -0.46822016      1.15788461     -0.86955246
H       -0.47696952      1.14534618      0.89122113
H        0.47457874     -1.14011305      0.89328302
H        0.46569526     -1.15976292     -0.86785098
H        2.06454183      0.77818031      0.87418925
H        2.05157655      0.77769074     -0.88546997
H        2.72917754     -0.59759559     -0.01415750
14
step=5 target=75.00deg measured=75.00deg E=-8574.6124kcal/mol converged=True
C       -1.93797408     -0.15028695     -0.00505940
C       -0.56658511      0.51423221      0.00813388
C        0.56402764     -0.51372185      0.00740940
C        1.93648264      0.15518489     -0.00358754
H       -2.05310539     -0.76769608     -0.89392055
H       -2.06514070     -0.78389406      0.87049652
H       -2.72623249      0.59891059     -0.00494940
H       -0.46831018      1.15598633     -0.87190345
H       -0.47621533      1.14788594      0.89479761
H        0.47590966     -1.15666408      0.88712481
H        0.45909772     -1.14909529     -0.87716340
H        2.17486436      0.56678206      0.97537655
H        1.96625378      0.95937395     -0.73573410
H        2.71115333     -0.56533663     -0.25791773
14
step=6 target=90.00deg measured=90.00deg E=-8573.6875kcal/mol converged=True
C       -1.93799392     -0.15015509     -0.00502980
C       -0.56685106      0.51372415      0.00821229
C        0.56340242     -0.51392613      0.00752448
C        1.93731045      0.15568492     -0.00333912
H       -2.05303649     -0.76770881     -0.89373437
H       -2.06511472     -0.78379557      0.87036373
H       -2.72635945      0.59891790     -0.00485073
H       -0.46834165      1.15565052     -0.87141998
H       -0.47629104      1.14772351      0.89436334
H        0.47559473     -1.15659177      0.88614535
H        0.45882431     -1.14846661     -0.87667738
H        2.29050884      0.33048151      1.01008468
H        1.89586089      1.10746976     -0.52729673
H        2.66660945     -0.47718587     -0.50429117
14
step=7 target=105.00deg measured=105.00deg E=-8572.7672kcal/mol converged=True
C       -1.94084161     -0.15037888     -0.00489807
C       -0.57005123      0.51154406      0.00803491
C        0.56189206     -0.51283419      0.00783672
C        1.94159472      0.15636534     -0.00271107
H       -2.05342907     -0.76846346     -0.89284215
H       -2.06562460     -0.78363244      0.87038035
H       -2.72851944      0.59929206     -0.00395063
H       -0.46912950      1.15267936     -0.86991198
H       -0.47817022      1.14566219      0.89247711
H        0.46593929     -1.15910972      0.88124274
H        0.45151608     -1.14727007     -0.87381569
H        2.41450939      0.09722039      0.97371746
H        1.85949361      1.20245769     -0.28474710
H        2.60436661     -0.33057647     -0.71382667
14
step=8 target=120.00deg measured=120.00deg E=-8572.3522kcal/mol converged=True
C       -1.94084161     -0.15037888     -0.00489807
C       -0.57005123      0.51154406      0.00803491
C        0.56189206     -0.51283419      0.00783672
C        1.94159472      0.15636534     -0.00271107
H       -2.05342907     -0.76846346     -0.89284215
H       -2.06562460     -0.78363244      0.87038035
H       -2.72851944      0.59929206     -0.00395063
H       -0.46912950      1.15267936     -0.86991198
H       -0.47817022      1.14566219      0.89247711
H        0.46593929     -1.15910972      0.88124274
H        0.45151608     -1.14727007     -0.87381569
H        2.52062274     -0.12314059      0.87316681
H        1.84408845      1.23835462     -0.02235381
H        2.51251415     -0.14378904     -0.87793827
14
step=9 target=135.00deg measured=135.00deg E=-8572.7893kcal/mol converged=True
C       -1.94007799     -0.15139640     -0.00663866
C       -0.56891134      0.51444580      0.00319410
C        0.56323786     -0.51248063      0.00402158
C        1.94732673      0.14918572     -0.00958333
H       -2.05978480     -0.77073950     -0.89304619
H       -2.06695183     -0.78336803      0.87037155
H       -2.72964296      0.59638884     -0.00388677
H       -0.47004575      1.15825658     -0.87561382
H       -0.48445434      1.14415325      0.89259532
H        0.45485977     -1.13867089      0.89332308
H        0.45891765     -1.16472182     -0.86565346
H        2.61799675     -0.32002066      0.70548320
H        1.86790746      1.19923713      0.26472172
H        2.40067304      0.09777218     -0.99610620
14
step=10 target=150.00deg measured=150.00deg E=-8573.7336kcal/mol converged=True
C       -1.94007748     -0.15123541     -0.00778179
C       -0.56856296      0.51313796      0.00298365
C        0.56475431     -0.51006916      0.00211386
C        1.94356786      0.14845375     -0.01017147
H       -2.05854820     -0.77136611     -0.89384223
H       -2.06369915     -0.78296867      0.86937781
H       -2.72908123      0.59783015     -0.00444990
H       -0.47159349      1.15850871     -0.87227645
H       -0.48111330      1.14482684      0.88925901
H        0.46415914     -1.13270163      0.89398746
H        0.46114514     -1.16594824     -0.86358376
H        2.67974436     -0.47172935      0.49609079
H        1.91073882      1.10263933      0.51367996
H        2.28154636      0.33476122     -1.02564424
14
step=11 target=165.00deg measured=165.00deg E=-8574.6279kcal/mol converged=True
C       -1.93920092     -0.15127973     -0.00745608
C       -0.56758143      0.51464413      0.00318127
C        0.56568274     -0.51039216      0.00209097
C        1.94160796      0.14856131     -0.00941980
H       -2.05832202     -0.77107427     -0.89392547
H       -2.06372624     -0.78327899      0.86949181
H       -2.72841054      0.59736069     -0.00466821
H       -0.47162227      1.15966261     -0.87389540
H       -0.48045512      1.14564360      0.89050560
H        0.46752114     -1.13293487      0.89571074
H        0.46265973     -1.16614453     -0.86590953
H        2.71896372     -0.56657636      0.25286127
H        1.98148548      0.95353414      0.72262844
H        2.16739221      0.57018736     -0.98690637
14
step=12 target=180.00deg measured=180.00deg E=-8574.9863kcal/mol converged=True
C       -1.93713919     -0.15058316     -0.00641659
C       -0.56629572      0.51470030      0.00465753
C        0.56540878     -0.51014057      0.00292856
C        1.93808883      0.14910286     -0.00383492
H       -2.05484795     -0.76967670     -0.89330855
H       -2.06221622     -0.78342194      0.86944141
H       -2.72663705      0.59730823     -0.00456647
H       -0.47116007      1.15912165     -0.87225632
H       -0.47653617      1.14807440      0.89013569
H        0.47970624     -1.13970314      0.89110784
H        0.46551998     -1.15638403     -0.87240935
H        2.72254114     -0.60436732     -0.00492767
H        2.06454815      0.77152758      0.87984884
H        2.05804775      0.77605251     -0.88422747
14
step=13 target=195.00deg measured=195.00deg E=-8574.6233kcal/mol converged=True
C       -1.93845258     -0.15044010     -0.00455503
C       -0.56722066      0.51451119      0.00711856
C        0.56356215     -0.51232968      0.00658866
C        1.94015640      0.14839502      0.00228009
H       -2.05213143     -0.76911313     -0.89271182
H       -2.06244572     -0.78405376      0.87133152
H       -2.72772701      0.59820015     -0.00336011
H       -0.46954699      1.15560021     -0.87230179
H       -0.47624626      1.14906811      0.89213900
H        0.46996433     -1.15868455      0.88259181
H        0.45843306     -1.14517432     -0.87873015
H        2.71351498     -0.56975215     -0.26114437
H        2.17281990      0.56973657      0.97721911
H        1.97517667      0.95392191     -0.73033289
14
step=14 target=210.00deg measured=210.00deg E=-8573.7132kcal/mol converged=True
C       -1.93826823     -0.15034603     -0.00449683
C       -0.56731425      0.51428266      0.00734203
C        0.56291546     -0.51267862      0.00643104
C        1.94118796      0.14856333      0.00265272
H       -2.05221856     -0.76905637     -0.89254919
H       -2.06255039     -0.78396428      0.87125483
H       -2.72768461      0.59802834     -0.00332270
H       -0.46955325      1.15550675     -0.87222946
H       -0.47635166      1.14908128      0.89207549
H        0.46973586     -1.15872843      0.88198257
H        0.45826998     -1.14475379     -0.87867463
H        2.66912083     -0.47844437     -0.50605377
H        2.28642208      0.33395730      1.01595836
H        1.90427610      1.10235051     -0.52151843
14
step=15 target=225.00deg measured=225.00deg E=-8572.7924kcal/mol converged=True
C       -1.93953567     -0.15056784     -0.00397455
C       -0.56932761      0.51346731      0.00763620
C        0.56127476     -0.51299719      0.00582502
C        1.94597014      0.14786958      0.00377575
H       -2.05337294     -0.76903904     -0.89151858
H       -2.06383462     -0.78367532      0.87153499
H       -2.72858342      0.59735595     -0.00283166
H       -0.47014767      1.15363399     -0.87167963
H       -0.47813163      1.14794933      0.89238957
H        0.46003233     -1.16166350      0.87719316
H        0.45125817     -1.14448736     -0.87839639
H        2.60793232     -0.32927629     -0.71354065
H        2.40868376      0.10354970      0.98538567
H        1.86410821      1.19516473     -0.27886928
14
step=16 target=240.00deg measured=240.00deg E=-8572.3668kcal/mol converged=True
C       -1.93953567     -0.15056784     -0.00397455
C       -0.56932761      0.51346731      0.00763620
C        0.56127476     -0.51299719      0.00582502
C        1.94597014      0.14786958      0.00377575
H       -2.05337294     -0.76903904     -0.89151858
H       -2.06383462     -0.78367532      0.87153499
H       -2.72858342      0.59735595     -0.00283166
H       -0.47014767      1.15363399     -0.87167963
H       -0.47813163      1.14794933      0.89238957
H        0.46003233     -1.16166350      0.87719316
H        0.45125817     -1.14448736     -0.87839639
H        2.51732618     -0.13993050     -0.87436338
H        2.51454535     -0.11855492      0.88998475
H        1.84736201      1.23106924     -0.01550269
14
step=17 target=255.00deg measured=255.00deg E=-8572.7755kcal/mol converged=True
C       -1.93999146     -0.15127289     -0.00639661
C       -0.56943792      0.51344225      0.00207097
C        0.56252109     -0.51257520      0.00264471
C        1.94369462      0.15536601      0.00056022
H       -2.05855742     -0.77156480     -0.89197565
H       -2.06345855     -0.78261257      0.87112819
H       -2.72918057      0.59670215     -0.00257304
H       -0.47008827      1.15895180     -0.87474740
H       -0.48198301      1.14338705      0.89004721
H        0.45035148     -1.14158876      0.88927233
H        0.46185171     -1.16258233     -0.86860651
H        2.41127161      0.08907063     -0.97869939
H        2.61263189     -0.32677452      0.70902749
H        1.86453329      1.20392292      0.27609927
14
step=18 target=270.00deg measured=270.00deg E=-8573.7188kcal/mol converged=True
C       -1.93977346     -0.15136011     -0.00738518
C       -0.56892165      0.51404344      0.00197328
C        0.56417418     -0.51001127      0.00149320
C        1.94024197      0.15538634      0.00129792
H       -2.05909276     -0.77192911     -0.89322581
H       -2.06189847     -0.78284662      0.87035429
H       -2.72920874      0.59702943     -0.00388363
H       -0.47226980      1.15924479     -0.87449363
H       -0.47996550      1.14498402      0.88943307
H        0.46206074     -1.13502232      0.89164558
H        0.46755182     -1.16264423     -0.86764451
H        2.28923985      0.32446845     -1.01430505
H        2.67463624     -0.47793456      0.49553456
H        1.90794068      1.10730368      0.52422771
14
step=19 target=285.00deg measured=285.00deg E=-8574.6194kcal/mol converged=True
C       -1.93974437     -0.15139351     -0.00733640
C       -0.56874374      0.51423452      0.00200446
C        0.56485324     -0.50949486      0.00157541
C        1.93934152      0.15490319      0.00145829
H       -2.05901017     -0.77185069     -0.89318833
H       -2.06192745     -0.78286495      0.87030421
H       -2.72915103      0.59696445     -0.00390057
H       -0.47228791      1.15932330     -0.87451117
H       -0.47994201      1.14503484      0.88934081
H        0.46254991     -1.13517375      0.89198766
H        0.46786844     -1.16259299     -0.86803548
H        2.17457462      0.56103759     -0.98008669
H        2.71668220     -0.56619903      0.24848069
H        1.97956938      0.95895294      0.73207608
14
step=20 target=300.00deg measured=300.00deg E=-8574.9877kcal/mol converged=True
C       -1.93757389     -0.15097565     -0.00629355
C       -0.56686821      0.51536101      0.00353980
C        0.56549109     -0.50908653      0.00353037
C        1.93769076      0.15203707      0.00182423
H       -2.05660212     -0.77070423     -0.89274015
H       -2.06222466     -0.78347593      0.87016887
H       -2.72783082      0.59630702     -0.00396410
H       -0.47262048      1.15971652     -0.87413597
H       -0.47817927      1.14872577      0.88933856
H        0.47530066     -1.14142209      0.88993679
H        0.47184649     -1.15206336     -0.87494817
H        2.05905291      0.77564169     -0.88134288
H        2.72197874     -0.60168855     -0.00483387
H        2.06447518      0.77394794      0.88560265
14
step=21 target=315.00deg measured=315.00deg E=-8574.6201kcal/mol converged=True
C       -1.93954984     -0.15106685     -0.00481471
C       -0.56912586      0.51430025      0.00678599
C        0.56313522     -0.51008645      0.00535360
C        1.94040993      0.15001750     -0.00037543
H       -2.05301752     -0.77018690     -0.89250985
H       -2.06148079     -0.78390301      0.87141447
H       -2.72832776      0.59778342     -0.00324970
H       -0.47114325      1.15516651     -0.87228067
H       -0.47737180      1.15008636      0.89022703
H        0.47032699     -1.15563054      0.88095248
H        0.46122759     -1.14416567     -0.87874317
H        1.97228845      0.96352416     -0.72238043
H        2.71471665     -0.56942942     -0.25355249
H        2.17123285      0.56718594      0.97771284
14
step=22 target=330.00deg measured=330.00deg E=-8573.6996kcal/mol converged=True
C       -1.93954984     -0.15106685     -0.00481471
C       -0.56912586      0.51430025      0.00678599
C        0.56313522     -0.51008645      0.00535360
C        1.94040993      0.15001750     -0.00037543
H       -2.05301752     -0.77018690     -0.89250985
H       -2.06148079     -0.78390301      0.87141447
H       -2.72832776      0.59778342     -0.00324970
H       -0.47114325      1.15516651     -0.87228067
H       -0.47737180      1.15008636      0.89022703
H        0.47032699     -1.15563054      0.88095248
H        0.46122759     -1.14416567     -0.87874317
H        1.90299710      1.10992720     -0.51152531
H        2.67124311     -0.48085863     -0.49950623
H        2.28500702      0.33013294      1.01588077
14
step=23 target=345.00deg measured=345.00deg E=-8572.7864kcal/mol converged=True
C       -1.93944947     -0.15091774     -0.00388445
C       -0.56903860      0.51431359      0.00624888
C        0.56203535     -0.51244626      0.00533553
C        1.94561624      0.14944244     -0.00077359
H       -2.05446558     -0.76987040     -0.89113814
H       -2.06404089     -0.78404099      0.87197120
H       -2.72964479      0.59620805     -0.00269134
H       -0.47210631      1.15443076     -0.87399340
H       -0.47965900      1.14852369      0.89162076
H        0.46040923     -1.16065963      0.87777788
H        0.45034502     -1.14399740     -0.87936047
H        1.86634509      1.20114299     -0.26670847
H        2.61332548     -0.33397474     -0.70799055
H        2.40597449      0.10063623      0.98356245
