[Molden Format]
[Title]
[Atoms] AU
C      1     6  0.18752508225058E+01  0.13624547413288E+01 -0.32840605456716E+01
C      2     6  0.18752508225058E+01 -0.13624547413288E+01 -0.32840605456716E+01
C      3     6 -0.71628179027613E+00 -0.22044978051985E+01 -0.32840605456716E+01
C      4     6 -0.23179380644594E+01  0.00000000000000E+00 -0.32840605456716E+01
C      5     6 -0.71628179027613E+00  0.22044978051985E+01 -0.32840605456716E+01
H      6     1  0.35276840376577E+01  0.25630166455615E+01 -0.32695285517733E+01
H      7     1  0.35276840376577E+01 -0.25630166455615E+01 -0.32695285517733E+01
H      8     1 -0.13474503158994E+01 -0.41470417750020E+01 -0.32695285517733E+01
H      9     1 -0.43604485462554E+01  0.00000000000000E+00 -0.32695285517733E+01
H     10     1 -0.13474503158994E+01  0.41470417750020E+01 -0.32695285517733E+01
Fe    11    26 -0.00000000000000E+00 -0.00000000000000E+00 -0.00000000000000E+00
C     12     6 -0.18752508225058E+01 -0.13624547413288E+01  0.32840605456716E+01
C     13     6 -0.18752508225058E+01  0.13624547413288E+01  0.32840605456716E+01
C     14     6  0.71628179027613E+00  0.22044978051985E+01  0.32840605456716E+01
C     15     6  0.23179380644594E+01 -0.00000000000000E+00  0.32840605456716E+01
C     16     6  0.71628179027613E+00 -0.22044978051985E+01  0.32840605456716E+01
H     17     1 -0.35276840376577E+01 -0.25630166455615E+01  0.32695285517733E+01
H     18     1 -0.35276840376577E+01  0.25630166455615E+01  0.32695285517733E+01
H     19     1  0.13474503158994E+01  0.41470417750020E+01  0.32695285517733E+01
H     20     1  0.43604485462554E+01 -0.00000000000000E+00  0.32695285517733E+01
H     21     1  0.13474503158994E+01 -0.41470417750020E+01  0.32695285517733E+01
[GTO]
           1 0
 s           4   1.0000000000000000     
   51.049363095579913      -0.16312063210127389     
   8.7911227406887544      -0.19911024581000730     
  0.70640422258929825       0.31882047753655751     
  0.26922813413411617       0.12706504184240380     
 p           4   1.0000000000000000     
   5.8263656140800002       0.73716451545209605     
   1.5106896018720002       0.68216371614850257     
  0.53256483288000001       0.35783053929253711     
  0.21202323690600003        5.3983030275847881E-002

           2 0
 s           4   1.0000000000000000     
   51.049363095579913      -0.16312063210127389     
   8.7911227406887544      -0.19911024581000730     
  0.70640422258929825       0.31882047753655751     
  0.26922813413411617       0.12706504184240380     
 p           4   1.0000000000000000     
   5.8263656140800002       0.73716451545209605     
   1.5106896018720002       0.68216371614850257     
  0.53256483288000001       0.35783053929253711     
  0.21202323690600003        5.3983030275847881E-002

           3 0
 s           4   1.0000000000000000     
   51.049363095579913      -0.16312063210127389     
   8.7911227406887544      -0.19911024581000730     
  0.70640422258929825       0.31882047753655751     
  0.26922813413411617       0.12706504184240380     
 p           4   1.0000000000000000     
   5.8263656140800002       0.73716451545209605     
   1.5106896018720002       0.68216371614850257     
  0.53256483288000001       0.35783053929253711     
  0.21202323690600003        5.3983030275847881E-002

           4 0
 s           4   1.0000000000000000     
   51.049363095579913      -0.16312063210127389     
   8.7911227406887544      -0.19911024581000730     
  0.70640422258929825       0.31882047753655751     
  0.26922813413411617       0.12706504184240380     
 p           4   1.0000000000000000     
   5.8263656140800002       0.73716451545209605     
   1.5106896018720002       0.68216371614850257     
  0.53256483288000001       0.35783053929253711     
  0.21202323690600003        5.3983030275847881E-002

           5 0
 s           4   1.0000000000000000     
   51.049363095579913      -0.16312063210127389     
   8.7911227406887544      -0.19911024581000730     
  0.70640422258929825       0.31882047753655751     
  0.26922813413411617       0.12706504184240380     
 p           4   1.0000000000000000     
   5.8263656140800002       0.73716451545209605     
   1.5106896018720002       0.68216371614850257     
  0.53256483288000001       0.35783053929253711     
  0.21202323690600003        5.3983030275847881E-002

           6 0
 s           3   1.0000000000000000     
   3.3702276975336001       0.27359110588908298     
  0.61389118221497996       0.26460540653860526     
  0.16614291148415999        8.2465947534082318E-002

           7 0
 s           3   1.0000000000000000     
   3.3702276975336001       0.27359110588908298     
  0.61389118221497996       0.26460540653860526     
  0.16614291148415999        8.2465947534082318E-002

           8 0
 s           3   1.0000000000000000     
   3.3702276975336001       0.27359110588908298     
  0.61389118221497996       0.26460540653860526     
  0.16614291148415999        8.2465947534082318E-002

           9 0
 s           3   1.0000000000000000     
   3.3702276975336001       0.27359110588908298     
  0.61389118221497996       0.26460540653860526     
  0.16614291148415999        8.2465947534082318E-002

          10 0
 s           3   1.0000000000000000     
   3.3702276975336001       0.27359110588908298     
  0.61389118221497996       0.26460540653860526     
  0.16614291148415999        8.2465947534082318E-002

          11 0
 d           3   1.0000000000000000     
   1.9097284056068595       0.86123337497982078     
  0.59879816752509318       0.39233450236476580     
  0.23324664383551713        5.2271843589666030E-002
 s           4   1.0000000000000000     
  0.33890443730507491       -3.5477315373264193E-002
  0.17385400358364450       -5.4600427324903063E-002
   5.3112073797143146E-002   7.0254894937927317E-002
   2.9571878021481552E-002   1.7878941350210724E-002
 p           4   1.0000000000000000     
   2.5010806535903765       -2.7057806256651110E-002
  0.72515527904784138       -5.7357803326340752E-002
  0.12656406788646482        6.9420869019116579E-002
   6.2103957630462676E-002   1.8197741520476433E-002

          12 0
 s           4   1.0000000000000000     
   51.049363095579913      -0.16312063210127389     
   8.7911227406887544      -0.19911024581000730     
  0.70640422258929825       0.31882047753655751     
  0.26922813413411617       0.12706504184240380     
 p           4   1.0000000000000000     
   5.8263656140800002       0.73716451545209605     
   1.5106896018720002       0.68216371614850257     
  0.53256483288000001       0.35783053929253711     
  0.21202323690600003        5.3983030275847881E-002

          13 0
 s           4   1.0000000000000000     
   51.049363095579913      -0.16312063210127389     
   8.7911227406887544      -0.19911024581000730     
  0.70640422258929825       0.31882047753655751     
  0.26922813413411617       0.12706504184240380     
 p           4   1.0000000000000000     
   5.8263656140800002       0.73716451545209605     
   1.5106896018720002       0.68216371614850257     
  0.53256483288000001       0.35783053929253711     
  0.21202323690600003        5.3983030275847881E-002

          14 0
 s           4   1.0000000000000000     
   51.049363095579913      -0.16312063210127389     
   8.7911227406887544      -0.19911024581000730     
  0.70640422258929825       0.31882047753655751     
  0.26922813413411617       0.12706504184240380     
 p           4   1.0000000000000000     
   5.8263656140800002       0.73716451545209605     
   1.5106896018720002       0.68216371614850257     
  0.53256483288000001       0.35783053929253711     
  0.21202323690600003        5.3983030275847881E-002

          15 0
 s           4   1.0000000000000000     
   51.049363095579913      -0.16312063210127389     
   8.7911227406887544      -0.19911024581000730     
  0.70640422258929825       0.31882047753655751     
  0.26922813413411617       0.12706504184240380     
 p           4   1.0000000000000000     
   5.8263656140800002       0.73716451545209605     
   1.5106896018720002       0.68216371614850257     
  0.53256483288000001       0.35783053929253711     
  0.21202323690600003        5.3983030275847881E-002

          16 0
 s           4   1.0000000000000000     
   51.049363095579913      -0.16312063210127389     
   8.7911227406887544      -0.19911024581000730     
  0.70640422258929825       0.31882047753655751     
  0.26922813413411617       0.12706504184240380     
 p           4   1.0000000000000000     
   5.8263656140800002       0.73716451545209605     
   1.5106896018720002       0.68216371614850257     
  0.53256483288000001       0.35783053929253711     
  0.21202323690600003        5.3983030275847881E-002

          17 0
 s           3   1.0000000000000000     
   3.3702276975336001       0.27359110588908298     
  0.61389118221497996       0.26460540653860526     
  0.16614291148415999        8.2465947534082318E-002

          18 0
 s           3   1.0000000000000000     
   3.3702276975336001       0.27359110588908298     
  0.61389118221497996       0.26460540653860526     
  0.16614291148415999        8.2465947534082318E-002

          19 0
 s           3   1.0000000000000000     
   3.3702276975336001       0.27359110588908298     
  0.61389118221497996       0.26460540653860526     
  0.16614291148415999        8.2465947534082318E-002

          20 0
 s           3   1.0000000000000000     
   3.3702276975336001       0.27359110588908298     
  0.61389118221497996       0.26460540653860526     
  0.16614291148415999        8.2465947534082318E-002

          21 0
 s           3   1.0000000000000000     
   3.3702276975336001       0.27359110588908298     
  0.61389118221497996       0.26460540653860526     
  0.16614291148415999        8.2465947534082318E-002

[MO]
Sym=     1a
Ene=  -0.65866051022379690     
Spin= Alpha
Occup=     2.00000000
           1  0.17687530418314260     
           2  -5.0781853373189023E-002
           3  -3.6894704371896875E-002
           4  -5.5832093344363454E-003
           5  0.17687530418310921     
           6  -5.0781853373173071E-002
           7   3.6894704371915547E-002
           8  -5.5832093344371503E-003
           9  0.17687575665807784     
          10   1.9396981473156258E-002
          11   5.9697325651368871E-002
          12  -5.5832043780612729E-003
          13  0.17687534654248641     
          14   6.2769407697108176E-002
          15   1.7537585273112761E-014
          16  -5.5832285883693445E-003
          17  0.17687575665816072     
          18   1.9396981473165514E-002
          19  -5.9697325651374596E-002
          20  -5.5832043780599085E-003
          21   2.6233491919332191E-002
          22   2.6233491919320468E-002
          23   2.6233923078609694E-002
          24   2.6233795302244442E-002
          25   2.6233923078636492E-002
          26  -1.8695051488270591E-014
          27  -1.9239290176838381E-014
          28   3.7934341665108972E-014
          29   3.9955924831480458E-016
          30  -3.3271154414255667E-015
          31   1.1417774273057046E-014
          32   6.5065405021435277E-014
          33  -1.8959753756772038E-007
          34   6.4896590309495077E-015
          35 -0.19393496310101616     
          36 -0.17687530418332301     
          37  -5.0781853373226618E-002
          38  -3.6894704371980919E-002
          39  -5.5832093344233575E-003
          40 -0.17687530418342484     
          41  -5.0781853373275815E-002
          42   3.6894704371955703E-002
          43  -5.5832093344221831E-003
          44 -0.17687575665840585     
          45   1.9396981473213608E-002
          46   5.9697325651464656E-002
          47  -5.5832043780462337E-003
          48 -0.17687534654266876     
          49   6.2769407697189097E-002
          50  -3.1296619330201744E-014
          51  -5.5832285883562092E-003
          52 -0.17687575665823407     
          53   1.9396981473184253E-002
          54  -5.9697325651431689E-002
          55  -5.5832043780479190E-003
          56  -2.6233491919375285E-002
          57  -2.6233491919395144E-002
          58  -2.6233923078688094E-002
          59  -2.6233795302288150E-002
          60  -2.6233923078652722E-002
Sym=     2a
Ene=  -0.63717807536871429     
Spin= Alpha
Occup=     2.00000000
           1  0.22253007383167989     
           2  -7.2298962114379806E-002
           3  -5.2527661273847719E-002
           4   1.4832340926284411E-002
           5  0.22253007383164614     
           6  -7.2298962114362500E-002
           7   5.2527661273863172E-002
           8   1.4832340926284805E-002
           9  0.22253043947101384     
          10   2.7615930502472939E-002
          11   8.4992054353565272E-002
          12   1.4832340632147306E-002
          13  0.22252974274621504     
          14   8.9365889681578728E-002
          15   1.7814616018980272E-014
          16   1.4832319412119183E-002
          17  0.22253043947110254     
          18   2.7615930502481120E-002
          19  -8.4992054353574695E-002
          20   1.4832340632147896E-002
          21   5.4148086630485780E-002
          22   5.4148086630480333E-002
          23   5.4148511243841416E-002
          24   5.4148372014584070E-002
          25   5.4148511243861767E-002
          26   3.4889421610800712E-002
          27   3.4889140849513438E-002
          28  -6.9778562460314150E-002
          29   4.4800380627927856E-016
          30   4.5149607949096501E-008
          31  -2.3635004925373769E-014
          32 -0.12398849221923712     
          33  -1.3940600428563992E-014
          34   4.8732732489111651E-014
          35  -1.0019577198240452E-013
          36  0.22253007383143980     
          37   7.2298962114274737E-002
          38   5.2527661273882566E-002
          39  -1.4832340926288627E-002
          40  0.22253007383166074     
          41   7.2298962114368814E-002
          42  -5.2527661273798272E-002
          43  -1.4832340926293408E-002
          44  0.22253043947104609     
          45  -2.7615930502511456E-002
          46  -8.4992054353520016E-002
          47  -1.4832340632156132E-002
          48  0.22252974274598375     
          49  -8.9365889681515168E-002
          50   7.7053850498505855E-014
          51  -1.4832319412123466E-002
          52  0.22253043947068332     
          53  -2.7615930502453069E-002
          54   8.4992054353492316E-002
          55  -1.4832340632148545E-002
          56   5.4148086630437735E-002
          57   5.4148086630502565E-002
          58   5.4148511243869234E-002
          59   5.4148372014539384E-002
          60   5.4148511243762951E-002
Sym=     3a
Ene=  -0.59767352240088589     
Spin= Alpha
Occup=     2.00000000
           1  0.15778878739814023     
           2  -5.5752196469638214E-002
           3   8.2762820680436194E-002
           4   3.3775674858132769E-003
           5 -0.15778878779725836     
           6   5.5752196384208641E-002
           7   8.2762820577949675E-002
           8  -3.3775674943608237E-003
           9 -0.25530777072091371     
          10  -3.4456786796435122E-002
          11   1.7222650125492057E-002
          12  -5.4650311025130358E-003
          13   2.4646343882028728E-010
          14  -5.5717009414737594E-012
          15  0.12326870028781797     
          16   5.2726787177437085E-012
          17  0.25530777087319456     
          18   3.4456786590546580E-002
          19   1.7222650062310205E-002
          20   5.4650311057690242E-003
          21   6.0953851066196413E-002
          22  -6.0953851220343892E-002
          23  -9.8626358205954279E-002
          24   9.5222084675929225E-011
          25   9.8626358264833583E-002
          26  -8.5867730064052807E-015
          27  -1.6715201387070131E-014
          28   2.5301974393475412E-014
          29   1.3010622401849097E-015
          30  -2.5641898565936363E-015
          31  -2.5061747906293100E-014
          32   3.4901259582645485E-014
          33  -1.2768199237438404E-010
          34  0.13902570429242705     
          35  -3.7605633304343819E-014
          36 -0.15778878739860111     
          37  -5.5752196469743887E-002
          38   8.2762820680451238E-002
          39   3.3775674858220208E-003
          40  0.15778878779727534     
          41   5.5752196384259468E-002
          42   8.2762820578200252E-002
          43  -3.3775674943546711E-003
          44  0.25530777072116922     
          45  -3.4456786796485110E-002
          46   1.7222650125647668E-002
          47  -5.4650311025089045E-003
          48  -2.4667712898327737E-010
          49  -5.5023419294921926E-012
          50  0.12326870028797123     
          51   5.2811995204183058E-012
          52 -0.25530777087358469     
          53   3.4456786590625836E-002
          54   1.7222650062194391E-002
          55   5.4650311057741086E-003
          56  -6.0953851066342477E-002
          57   6.0953851220393311E-002
          58   9.8626358206106879E-002
          59  -9.5279241062904295E-011
          60  -9.8626358264918931E-002
Sym=     4a
Ene=  -0.59767285658358393     
Spin= Alpha
Occup=     2.00000000
           1 -0.21717773193702644     
           2  -4.6533227566304056E-002
           3   5.5751566519987195E-002
           4  -4.6488396611016527E-003
           5 -0.21717773164719001     
           6  -4.6533227668701937E-002
           7  -5.5751566672012899E-002
           8  -4.6488396548964375E-003
           9   8.2954032798675248E-002
          10 -0.11207406927908009     
          11   3.4456274198307650E-002
          12   1.7757051299002607E-003
          13  0.26844638676183397     
          14  -6.0281188219358395E-003
          15  -1.1318713672065547E-010
          16   5.7462649406254118E-003
          17   8.2954032329776634E-002
          18 -0.11207406934240509     
          19  -3.4456274229943490E-002
          20   1.7757051198630134E-003
          21  -8.3896439392444511E-002
          22  -8.3896439280472010E-002
          23   3.2045736172630589E-002
          24  0.10370260140843929     
          25   3.2045735991499742E-002
          26  -4.8782523341164453E-015
          27  -2.3029075002074624E-015
          28   7.1811598343239077E-015
          29   4.8209317225533058E-015
          30   2.7674486177146394E-014
          31   2.4291575761965275E-015
          32   1.0076516352307505E-014
          33 -0.13902578847294214     
          34  -1.2768342721545738E-010
          35   7.0696835110879614E-009
          36  0.21717773193725762     
          37  -4.6533227566394046E-002
          38   5.5751566520090105E-002
          39  -4.6488396610995884E-003
          40  0.21717773164753260     
          41  -4.6533227668835983E-002
          42  -5.5751566672084356E-002
          43  -4.6488396548970603E-003
          44  -8.2954032798949431E-002
          45 -0.11207406927930903     
          46   3.4456274198384221E-002
          47   1.7757051299040977E-003
          48 -0.26844638676225852     
          49  -6.0281188219049146E-003
          50  -1.1326657525440552E-010
          51   5.7462649406279523E-003
          52  -8.2954032329880148E-002
          53 -0.11207406934248718     
          54  -3.4456274230012462E-002
          55   1.7757051198636999E-003
          56   8.3896439392532968E-002
          57   8.3896439280632076E-002
          58  -3.2045736172736781E-002
          59 -0.10370260140858500     
          60  -3.2045735991520011E-002
Sym=     5a
Ene=  -0.58317070647569635     
Spin= Alpha
Occup=     2.00000000
           1  0.17056392245272173     
           2  -6.2958338541921482E-002
           3   9.4669435850525022E-002
           4  -1.6718013980662381E-004
           5 -0.17056392296284839     
           6   6.2958338425079099E-002
           7   9.4669435713704966E-002
           8   1.6718014030510909E-004
           9 -0.27597839467503898     
          10  -3.8910463691395447E-002
          11   2.0658033748118688E-002
          12   2.7051733313998826E-004
          13   3.1526796140508611E-010
          14  -8.6956407109549881E-012
          15  0.14041075642024711     
          16  -3.1029473465707989E-013
          17  0.27597839486996761     
          18   3.8910463413772002E-002
          19   2.0658033663589342E-002
          20  -2.7051733333496842E-004
          21   6.9547718393208877E-002
          22  -6.9547718601222136E-002
          23 -0.11253164709135288     
          24   1.2854551250431538E-010
          25  0.11253164717084732     
          26  -5.5929105457791014E-015
          27   8.4958319866888205E-015
          28  -2.9029214409097199E-015
          29  -1.0255149891029658E-008
          30  -3.7556365101127812E-011
          31   3.4564627764202556E-002
          32   1.6479173862544843E-014
          33   9.4257787230543007E-015
          34   9.0402242492491264E-014
          35   4.0848322428083590E-014
          36  0.17056392245263183     
          37   6.2958338541845182E-002
          38  -9.4669435850351508E-002
          39   1.6718013981459887E-004
          40 -0.17056392296262798     
          41  -6.2958338425021243E-002
          42  -9.4669435713718386E-002
          43  -1.6718014031149930E-004
          44 -0.27597839467474655     
          45   3.8910463691415723E-002
          46  -2.0658033748213095E-002
          47  -2.7051733315210260E-004
          48   3.1547653232519341E-010
          49   8.6823972466940938E-012
          50 -0.14041075642007295     
          51   3.1023438781678840E-013
          52  0.27597839486960030     
          53  -3.8910463413713181E-002
          54  -2.0658033663441031E-002
          55   2.7051733334378450E-004
          56   6.9547718393148591E-002
          57  -6.9547718601166750E-002
          58 -0.11253164709128487     
          59   1.2861846637167039E-010
          60  0.11253164717063041     
Sym=     6a
Ene=  -0.58317001300229088     
Spin= Alpha
Occup=     2.00000000
           1 -0.23476102093574419     
           2  -5.3757061871870411E-002
           3   6.2957464177828881E-002
           4   2.3012742585550627E-004
           5 -0.23476102056504264     
           6  -5.3757062008693790E-002
           7  -6.2957464383582573E-002
           8   2.3012742549216865E-004
           9   8.9670340437906865E-002
          10 -0.12776918576478455     
          11   3.8909850422870582E-002
          12  -8.7929910900894499E-005
          13  0.29018094103466985     
          14  -8.0166709412550531E-003
          15  -1.5255816917595903E-010
          16  -2.8449216175449067E-004
          17   8.9670339838159793E-002
          18 -0.12776918584938479     
          19  -3.8909850467769180E-002
          20  -8.7929910314759084E-005
          21  -9.5724954395423639E-002
          22  -9.5724954244264374E-002
          23   3.6563849311121811E-002
          24  0.11832373116488842     
          25   3.6563849066576420E-002
          26  -1.2147266503354586E-007
          27  -3.1967346223909357E-008
          28   1.5344001125745520E-007
          29  -8.2905933559448328E-015
          30  -3.4564202617825154E-002
          31  -3.7556409878636687E-011
          32   9.4145570258646120E-008
          33  -1.0063462486411154E-013
          34  -9.9620278402484615E-015
          35   1.2241364106129644E-014
          36 -0.23476102093532353     
          37   5.3757061871828909E-002
          38  -6.2957464177816766E-002
          39  -2.3012742586567449E-004
          40 -0.23476102056486714     
          41   5.3757062008675208E-002
          42   6.2957464383468609E-002
          43  -2.3012742550256748E-004
          44   8.9670340437864676E-002
          45  0.12776918576471913     
          46  -3.8909850422836442E-002
          47   8.7929910906607025E-005
          48  0.29018094103429515     
          49   8.0166709412134336E-003
          50   1.5262612541837798E-010
          51   2.8449216176658641E-004
          52   8.9670339838057847E-002
          53  0.12776918584910940     
          54   3.8909850467719144E-002
          55   8.7929910317052632E-005
          56  -9.5724954395242812E-002
          57  -9.5724954244223379E-002
          58   3.6563849311111681E-002
          59  0.11832373116471563     
          60   3.6563849066514144E-002
Sym=     7a
Ene=  -0.53366713713473868     
Spin= Alpha
Occup=     2.00000000
           1  -6.6047745766075375E-002
           2 -0.13058353071518877     
           3  0.11949079313695420     
           4  -2.3981141604214487E-004
           5  -6.6047748751536170E-002
           6 -0.13058353152376290     
           7 -0.11949079152653551     
           8  -2.3981142689871835E-004
           9  0.17291700020325365     
          10   7.3285093346911065E-002
          11 -0.12130009617727612     
          12   6.2849775653012782E-004
          13 -0.21373426553530248     
          14  0.11459554239080290     
          15  -1.3391012885916690E-009
          16  -7.7646059182290435E-004
          17  0.17291699835811433     
          18   7.3285095713282622E-002
          19  0.12130009590596355     
          20   6.2849774980739943E-004
          21  -5.4367863900277653E-002
          22  -5.4367866357911021E-002
          23  0.14234778777699358     
          24 -0.17594381326462863     
          25  0.14234778625809708     
          26   1.6953251563162214E-002
          27  -1.6953781793574811E-002
          28   5.3023041259398028E-007
          29  -1.4382707041473369E-010
          30  -7.9249312803501824E-008
          31  -1.0196731232316033E-014
          32  -9.5775357433118343E-007
          33  -9.1332107666731170E-015
          34  -3.3978839870663993E-014
          35  -1.2900262374485833E-015
          36  -6.6047745765570653E-002
          37  0.13058353071692549     
          38 -0.11949079313970934     
          39   2.3981141603734388E-004
          40  -6.6047748754141725E-002
          41  0.13058353152630864     
          42  0.11949079152765638     
          43   2.3981142688507046E-004
          44  0.17291700020686132     
          45  -7.3285093347003741E-002
          46  0.12130009617941864     
          47  -6.2849775649742254E-004
          48 -0.21373426553879768     
          49 -0.11459554239266619     
          50   1.3402827654353396E-009
          51   7.7646059180081590E-004
          52  0.17291699836008359     
          53  -7.3285095715624235E-002
          54 -0.12130009590770606     
          55  -6.2849774980244181E-004
          56  -5.4367863899899345E-002
          57  -5.4367866360046258E-002
          58  0.14234778777999657     
          59 -0.17594381326747274     
          60  0.14234778625961406     
Sym=     8a
Ene=  -0.53366689015165769     
Spin= Alpha
Occup=     2.00000000
           1 -0.20327521842037230     
           2  -5.5053868126245874E-002
           3 -0.10965036228584658     
           4  -7.3862949286143318E-004
           5  0.20327521744940225     
           6   5.5053866206576867E-002
           7 -0.10965036404252056     
           8   7.3862948934940744E-004
           9 -0.12563051244796050     
          10  0.16111990924950820     
          11   1.8475794733167399E-002
          12  -4.5649867588427607E-004
          13  -1.5710782958213956E-009
          14   8.4232211978360188E-010
          15  0.18234955117235149     
          16  -5.7033059092629897E-012
          17  0.12563051499007249     
          18 -0.16111990817218419     
          19   1.8475796516493392E-002
          20   4.5649868511106896E-004
          21 -0.16733550452224352     
          22  0.16733550372301961     
          23 -0.10341948830714158     
          24  -1.2932756367811380E-009
          25  0.10341949039989221     
          26   1.2455488643297225E-010
          27  -1.2456097270378778E-010
          28   6.0862708155406853E-015
          29   1.9576098408573508E-002
          30   8.5606949969417217E-015
          31   7.9619979676120754E-008
          32  -1.1758445840253249E-014
          33   3.1038275723552084E-014
          34  -1.0224565424076210E-014
          35  -1.9321460768806069E-015
          36 -0.20327521842416485     
          37   5.5053868126552524E-002
          38  0.10965036228887162     
          39   7.3862949284173040E-004
          40  0.20327521745397459     
          41  -5.5053866208589965E-002
          42  0.10965036404399864     
          43  -7.3862948931160640E-004
          44 -0.12563051245181209     
          45 -0.16111990925232028     
          46  -1.8475794734481025E-002
          47   4.5649867585940529E-004
          48  -1.5694440942354281E-009
          49  -8.4152120642311895E-010
          50 -0.18234955117609847     
          51   5.7059300860732691E-012
          52  0.12563051499147715     
          53  0.16111990817595240     
          54  -1.8475796515952814E-002
          55  -4.5649868510562691E-004
          56 -0.16733550452533549     
          57  0.16733550372679165     
          58 -0.10341948831033003     
          59  -1.2919874809721775E-009
          60  0.10341949040096315     
Sym=     9a
Ene=  -0.53266936925509867     
Spin= Alpha
Occup=     2.00000000
           1  -6.6228039412589298E-002
           2 -0.13037321705968338     
           3  0.11906167425464549     
           4   4.3414144078860980E-004
           5  -6.6228042615491714E-002
           6 -0.13037321792943210     
           7 -0.11906167253126437     
           8   4.3414146176732374E-004
           9  0.17338884458494974     
          10   7.2942478451377302E-002
          11 -0.12141345668272571     
          12  -1.1367448053564043E-003
          13 -0.21431810629627265     
          14  0.11486043272524545     
          15  -1.4288768070762623E-009
          16   1.4050893500036348E-003
          17  0.17338884260530940     
          18   7.2942480977983962E-002