[Molden Format]
[Title]
[Atoms] AU
N      1     7  0.00000000000000E+00  0.00000000000000E+00  0.00000000000000E+00
H      2     1 -0.83469202924485E+00  0.54915441181470E+00  0.16461404271569E+01
H      3     1  0.13711852760246E+01  0.13031551355383E+01 -0.36037077196512E+00
H      4     1  0.92124148575246E+00 -0.16442507010322E+01  0.39476378743321E+00
[GTO]
           1 0
 s           4   1.0000000000000000     
   63.594024466941008      -0.19234388414721629     
   10.951417231523665      -0.23478107924953728     
  0.87999310257376984       0.37593753901700888     
  0.33538715296521110       0.14982889271862770     
 p           4   1.0000000000000000     
   7.2965040481495080       0.97658666315667420     
   1.8918745450712575       0.90372226730345739     
  0.66694432110824120       0.47404958461536373     
  0.26552202674130870        7.1516067715011844E-002

           2 0
 s           3   1.0000000000000000     
   3.3702276975336001       0.27359110588908298     
  0.61389118221497996       0.26460540653860526     
  0.16614291148415999        8.2465947534082318E-002

           3 0
 s           3   1.0000000000000000     
   3.3702276975336001       0.27359110588908298     
  0.61389118221497996       0.26460540653860526     
  0.16614291148415999        8.2465947534082318E-002

           4 0
 s           3   1.0000000000000000     
   3.3702276975336001       0.27359110588908298     
  0.61389118221497996       0.26460540653860526     
  0.16614291148415999        8.2465947534082318E-002

[MO]
Sym=     1a
Ene=  -0.59632031218324943     
Spin= Alpha
Occup=     2.00000000
           1 -0.59982876073445868     
           2  -9.9488886403580973E-002
           3  -1.4192483741188512E-002
           4 -0.11470488521980922     
           5 -0.23130003417011646     
           6 -0.23129639818998438     
           7 -0.23130934852982829     
Sym=     2a
Ene=  -0.50048886446186991     
Spin= Alpha
Occup=     2.00000000
           1  -1.9902802429083087E-005
           2  0.47326906018010184     
           3 -0.19740839736853427     
           4 -0.38602918326823976     
           5 -0.45699863285225306     
           6  0.21297648341931094     
           7  0.24403492528114035     
Sym=     3a
Ene=  -0.50048252969827334     
Spin= Alpha
Occup=     2.00000000
           1  -7.9013819585177940E-006
           2 -0.11253836263522013     
           3 -0.60782127565985422     
           4  0.17285333142146753     
           5   1.7927648515110594E-002
           6 -0.40474753421267962     
           7  0.38680318428389743     
Sym=     4a
Ene=  -0.39012010481040221     
Spin= Alpha
Occup=     2.00000000
           1  0.47932679717696514     
           2 -0.56858376013251588     
           3  -8.1164708205390804E-002
           4 -0.65558556810779134     
           5 -0.10738124374580471     
           6 -0.10737467884139401     
           7 -0.10737379595499535     
Sym=     5a
Ene=    6.1187833949106533E-002
Spin= Alpha
Occup=     0.00000000
           1  -1.0327880353189225     
           2 -0.36596624444514242     
           3  -5.2309041721733798E-002
           4 -0.42184622779096326     
           5  0.58513707401420734     
           6  0.58524304010260897     
           7  0.58509058590474050     
Sym=     6a
Ene=   0.19796448593732216     
Spin= Alpha
Occup=     0.00000000
           1  -1.2057555615951241E-004
           2  0.31704029769440289     
           3  0.86573646939999471     
           4 -0.38223424826426405     
           5  0.23496834090156926     
           6 -0.95486291619219188     
           7  0.72008110400771552     
Sym=     7a
Ene=   0.19800482307688760     
Spin= Alpha
Occup=     0.00000000
           1   1.6104486008201850E-005
           2 -0.68679246259925819     
           3  0.48782894591081538     
           4  0.53527395765717023     
           5 -0.96704243458704964     
           6  0.28006943266630702     
           7  0.68695690098291529     
